 DBCSR| CPU Multiplication driver                                           XSMM
 DBCSR| Multrec recursion limit                                              512
 DBCSR| Multiplication stack size                                           1000
 DBCSR| Maximum elements for images                                    UNLIMITED
 DBCSR| Multiplicative factor virtual images                                   1
 DBCSR| Use multiplication densification                                       T
 DBCSR| Multiplication size stacks                                             3
 DBCSR| Use memory pool for CPU allocation                                     F
 DBCSR| Number of 3D layers                                               SINGLE
 DBCSR| Use MPI memory allocation                                              F
 DBCSR| Use RMA algorithm                                                      F
 DBCSR| Use Communication thread                                               T
 DBCSR| Communication thread load                                             87
 DBCSR| MPI: My node id                                                        0
 DBCSR| MPI: Number of nodes                                                  36
 DBCSR| OMP: Current number of threads                                         1
 DBCSR| OMP: Max number of threads                                             1
 DBCSR| Split modifier for TAS multiplication algorithm                  1.0E+00


  **** **** ******  **  PROGRAM STARTED AT               2022-05-26 21:39:50.051
 ***** ** ***  *** **   PROGRAM STARTED ON                               tcopt11
 **    ****   ******    PROGRAM STARTED BY                               wilhelm
 ***** **    ** ** **   PROGRAM PROCESS ID                                 87226
  **** **  *******  **  PROGRAM STARTED IN /data/wilhelm/55_check_HFX/5_HFX_MoS2
                                           _PERIODIC_XY/5_height_10A_E_

 CP2K| version string:                   CP2K version 10.0 (Development Version)
 CP2K| source code revision number:                                  git:3d29584
 CP2K| cp2kflags: omp libint fftw3 libxc parallel mpi3 scalapack xsmm           
 CP2K| is freely available from                            https://www.cp2k.org/
 CP2K| Program compiled at                      Sun 22 May 2022 01:43:22 PM CEST
 CP2K| Program compiled on                                               tcopt11
 CP2K| Program compiled for                                                local
 CP2K| Data directory path                    /data/wilhelm/52_fix_HFX/cp2k/data
 CP2K| Input file name                                                    HF.inp

 GLOBAL| Force Environment number                                              1
 GLOBAL| Basis set file name                            ../../BASIS_Mo_S_minimal
 GLOBAL| Potential file name                                      GTH_POTENTIALS
 GLOBAL| MM Potential file name                                     MM_POTENTIAL
 GLOBAL| Coordinate file name                                      __STD_INPUT__
 GLOBAL| Method name                                                        CP2K
 GLOBAL| Project name                                                       MoS2
 GLOBAL| Run type                                                         ENERGY
 GLOBAL| FFT library                                                       FFTW3
 GLOBAL| Diagonalization library                                       ScaLAPACK
 GLOBAL| Orthonormality check for eigenvectors                          DISABLED
 GLOBAL| Matrix multiplication library                                 ScaLAPACK
 GLOBAL| All-to-all communication in single precision                          F
 GLOBAL| FFTs using library dependent lengths                                  F
 GLOBAL| Grid backend                                                       AUTO
 GLOBAL| Global print level                                               MEDIUM
 GLOBAL| MPI I/O enabled                                                       T
 GLOBAL| Total number of message passing processes                            36
 GLOBAL| Number of threads for this process                                    1
 GLOBAL| This output is from process                                           0
 GLOBAL| Stack size for threads created by OpenMP (OMP_STACKSIZE)        default
 GLOBAL| CPU model name                          AMD EPYC 7401 24-Core Processor
 GLOBAL| CPUID                                                              1002

 MEMORY| system memory details [Kb]
 MEMORY|                        rank 0           min           max       average
 MEMORY| MemTotal            263969112     263969112     263969112     263969112
 MEMORY| MemFree             209721792     209721792     209721792     209721792
 MEMORY| Buffers               1122612       1122612       1122612       1122612
 MEMORY| Cached               45477784      45477784      45477784      45477784
 MEMORY| Slab                  2849780       2849780       2849780       2849780
 MEMORY| SReclaimable          2288304       2288304       2288304       2288304
 MEMORY| MemLikelyFree       258610492     258610492     258610492     258610492


 *** Fundamental physical constants (SI units) ***

 *** Literature: B. J. Mohr and B. N. Taylor,
 ***             CODATA recommended values of the fundamental physical
 ***             constants: 2006, Web Version 5.1
 ***             http://physics.nist.gov/constants

 Speed of light in vacuum [m/s]                             2.99792458000000E+08
 Magnetic constant or permeability of vacuum [N/A**2]       1.25663706143592E-06
 Electric constant or permittivity of vacuum [F/m]          8.85418781762039E-12
 Planck constant (h) [J*s]                                  6.62606896000000E-34
 Planck constant (h-bar) [J*s]                              1.05457162825177E-34
 Elementary charge [C]                                      1.60217648700000E-19
 Electron mass [kg]                                         9.10938215000000E-31
 Electron g factor [ ]                                     -2.00231930436220E+00
 Proton mass [kg]                                           1.67262163700000E-27
 Fine-structure constant                                    7.29735253760000E-03
 Rydberg constant [1/m]                                     1.09737315685270E+07
 Avogadro constant [1/mol]                                  6.02214179000000E+23
 Boltzmann constant [J/K]                                   1.38065040000000E-23
 Atomic mass unit [kg]                                      1.66053878200000E-27
 Bohr radius [m]                                            5.29177208590000E-11

 *** Conversion factors ***

 [u] -> [a.u.]                                              1.82288848426455E+03
 [Angstrom] -> [Bohr] = [a.u.]                              1.88972613288564E+00
 [a.u.] = [Bohr] -> [Angstrom]                              5.29177208590000E-01
 [a.u.] -> [s]                                              2.41888432650478E-17
 [a.u.] -> [fs]                                             2.41888432650478E-02
 [a.u.] -> [J]                                              4.35974393937059E-18
 [a.u.] -> [N]                                              8.23872205491840E-08
 [a.u.] -> [K]                                              3.15774647902944E+05
 [a.u.] -> [kJ/mol]                                         2.62549961709828E+03
 [a.u.] -> [kcal/mol]                                       6.27509468713739E+02
 [a.u.] -> [Pa]                                             2.94210107994716E+13
 [a.u.] -> [bar]                                            2.94210107994716E+08
 [a.u.] -> [atm]                                            2.90362800883016E+08
 [a.u.] -> [eV]                                             2.72113838565563E+01
 [a.u.] -> [Hz]                                             6.57968392072181E+15
 [a.u.] -> [1/cm] (wave numbers)                            2.19474631370540E+05
 [a.u./Bohr**2] -> [1/cm]                                   5.14048714338585E+03
 

 CELL_TOP| Volume [angstrom^3]:                                      3093.529345
 CELL_TOP| Vector a [angstrom    18.900     0.000     0.000   |a| =    18.900000
 CELL_TOP| Vector b [angstrom    -9.450    16.368     0.000   |b| =    18.900000
 CELL_TOP| Vector c [angstrom     0.000     0.000    10.000   |c| =    10.000000
 CELL_TOP| Angle (b,c), alpha [degree]:                                90.000000
 CELL_TOP| Angle (a,c), beta  [degree]:                                90.000000
 CELL_TOP| Angle (a,b), gamma [degree]:                               120.000000
 CELL_TOP| Numerically orthorhombic:                                          NO

 CELL_UC| Volume [angstrom^3]:                                         85.931371
 CELL_UC| Vector a [angstrom]     3.150     0.000     0.000   |a| =     3.150000
 CELL_UC| Vector b [angstrom]    -1.575     2.728     0.000   |b| =     3.150000
 CELL_UC| Vector c [angstrom]     0.000     0.000    10.000   |c| =    10.000000
 CELL_UC| Angle (b,c), alpha [degree]:                                 90.000000
 CELL_UC| Angle (a,c), beta  [degree]:                                 90.000000
 CELL_UC| Angle (a,b), gamma [degree]:                                120.000000
 CELL_UC| Numerically orthorhombic:                                           NO

 GENERATE|  Preliminary Number of Bonds generated:                             0
 GENERATE|  Achieved consistency in connectivity generation.

 CELL| Volume [angstrom^3]:                                          3093.529345
 CELL| Vector a [angstrom]:      18.900     0.000     0.000   |a| =    18.900000
 CELL| Vector b [angstrom]:      -9.450    16.368     0.000   |b| =    18.900000
 CELL| Vector c [angstrom]:       0.000     0.000    10.000   |c| =    10.000000
 CELL| Angle (b,c), alpha [degree]:                                    90.000000
 CELL| Angle (a,c), beta  [degree]:                                    90.000000
 CELL| Angle (a,b), gamma [degree]:                                   120.000000
 CELL| Numerically orthorhombic:                                              NO

 CELL_REF| Volume [angstrom^3]:                                      3093.529345
 CELL_REF| Vector a [angstrom    18.900     0.000     0.000   |a| =    18.900000
 CELL_REF| Vector b [angstrom    -9.450    16.368     0.000   |b| =    18.900000
 CELL_REF| Vector c [angstrom     0.000     0.000    10.000   |c| =    10.000000
 CELL_REF| Angle (b,c), alpha [degree]:                                90.000000
 CELL_REF| Angle (a,c), beta  [degree]:                                90.000000
 CELL_REF| Angle (a,b), gamma [degree]:                               120.000000
 CELL_REF| Numerically orthorhombic:                                          NO

 *******************************************************************************
 *******************************************************************************
 **                                                                           **
 **     #####                         ##              ##                      **
 **    ##   ##            ##          ##              ##                      **
 **   ##     ##                       ##            ######                    **
 **   ##     ##  ##   ##  ##   #####  ##  ##   ####   ##    #####    #####    **
 **   ##     ##  ##   ##  ##  ##      ## ##   ##      ##   ##   ##  ##   ##   **
 **   ##  ## ##  ##   ##  ##  ##      ####     ###    ##   ######   ######    **
 **    ##  ###   ##   ##  ##  ##      ## ##      ##   ##   ##       ##        **
 **     #######   #####   ##   #####  ##  ##  ####    ##    #####   ##        **
 **           ##                                                    ##        **
 **                                                                           **
 **                                                ... make the atoms dance   **
 **                                                                           **
 **            Copyright (C) by CP2K developers group (2000-2022)             **
 **                      J. Chem. Phys. 152, 194103 (2020)                    **
 **                                                                           **
 *******************************************************************************

 DFT| Spin restricted Kohn-Sham (RKS) calculation                            RKS
 DFT| Multiplicity                                                             1
 DFT| Number of spin states                                                    1
 DFT| Charge                                                                   0
 DFT| Self-interaction correction (SIC)                                       NO
 DFT| Cutoffs: density                                              1.000000E-10
 DFT|          gradient                                             1.000000E-10
 DFT|          tau                                                  1.000000E-10
 DFT|          cutoff_smoothing_range                               0.000000E+00
 DFT| XC density smoothing                                                  NONE
 DFT| XC derivatives                                                          PW
 FUNCTIONAL| NO EXCHANGE-CORRELATION FUNCTIONAL USED.

 QS| Method:                                                                 GPW
 QS| Density plane wave grid type                        NON-SPHERICAL FULLSPACE
 QS| Number of grid levels:                                                    4
 QS| Density cutoff [a.u.]:                                                150.0
 QS| Multi grid cutoff [a.u.]: 1) grid level                               150.0
 QS|                           2) grid level                                50.0
 QS|                           3) grid level                                16.7
 QS|                           4) grid level                                 5.6
 QS| Grid level progression factor:                                          3.0
 QS| Relative density cutoff [a.u.]:                                        20.0
 QS| Interaction thresholds: eps_pgf_orb:                                1.0E-20
 QS|                         eps_filter_matrix:                          0.0E+00
 QS|                         eps_core_charge:                            1.0E-22
 QS|                         eps_rho_gspace:                             1.0E-20
 QS|                         eps_rho_rspace:                             1.0E-20
 QS|                         eps_gvg_rspace:                             1.0E-10
 QS|                         eps_ppl:                                    1.0E-02
 QS|                         eps_ppnl:                                   1.0E-12


 ATOMIC KIND INFORMATION

  1. Atomic kind: Mo                                    Number of atoms:      36

     Orbital Basis Set                                                   minimal

       Number of orbital shell sets:                                           3
       Number of orbital shells:                                               3
       Number of primitive Cartesian functions:                                3
       Number of Cartesian basis functions:                                    8
       Number of spherical basis functions:                                    7
       Norm type:                                                              2

       Normalised Cartesian orbitals:

                        Set   Shell   Orbital            Exponent    Coefficient

                          1       1    1s                0.400000       0.358472

                          2       1    1s                2.000000       1.198623

                          3       1    1dx2              1.000000       1.645923
                          3       1    1dxy              1.000000       2.850822
                          3       1    1dxz              1.000000       2.850822
                          3       1    1dy2              1.000000       1.645923
                          3       1    1dyz              1.000000       2.850822
                          3       1    1dz2              1.000000       1.645923

       Atomic covalent radius [Angstrom]:                                  1.300

       Atomic van der Waals radius [Angstrom]:                             1.670

     GTH Potential information for                                   GTH-PADE-q6

       Description:                       Goedecker-Teter-Hutter pseudopotential
                                           Goedecker et al., PRB 54, 1703 (1996)
                                          Hartwigsen et al., PRB 58, 3641 (1998)
                                                      Krack, TCA 114, 145 (2005)

       Gaussian exponent of the core charge distribution:               1.023330
       Electronic configuration (s p d ...):                           1   0   5

       Parameters of the local part of the GTH pseudopotential:

                          rloc        C1          C2          C3          C4
                        0.699000    7.995868

       Parameters of the non-local part of the GTH pseudopotential:

                   l      r(l)      h(i,j,l)

                   0    0.678126    1.289607   -0.386568
                                   -0.386568    0.998113
                   1    0.800771    0.301412   -0.313389
                                   -0.313389    0.741615
                   2    0.453384   -2.809708    3.007755
                                    3.007755   -6.820946

  2. Atomic kind: S                                     Number of atoms:      72

     Orbital Basis Set                                                   minimal

       Number of orbital shell sets:                                           4
       Number of orbital shells:                                               4
       Number of primitive Cartesian functions:                                4
       Number of Cartesian basis functions:                                    8
       Number of spherical basis functions:                                    8
       Norm type:                                                              2

       Normalised Cartesian orbitals:

                        Set   Shell   Orbital            Exponent    Coefficient

                          1       1    1s                0.400000       0.358472

                          2       1    1s                2.000000       1.198623

                          3       1    1px               0.300000       0.316477
                          3       1    1py               0.300000       0.316477
                          3       1    1pz               0.300000       0.316477

                          4       1    1px               0.800000       1.078456
                          4       1    1py               0.800000       1.078456
                          4       1    1pz               0.800000       1.078456

       Atomic covalent radius [Angstrom]:                                  1.020

       Atomic van der Waals radius [Angstrom]:                             1.800

     GTH Potential information for                                   GTH-PADE-q6

       Description:                       Goedecker-Teter-Hutter pseudopotential
                                           Goedecker et al., PRB 54, 1703 (1996)
                                          Hartwigsen et al., PRB 58, 3641 (1998)
                                                      Krack, TCA 114, 145 (2005)

       Gaussian exponent of the core charge distribution:               2.834467
       Electronic configuration (s p d ...):                               2   4

       Parameters of the local part of the GTH pseudopotential:

                          rloc        C1          C2          C3          C4
                        0.420000   -6.554492

       Parameters of the non-local part of the GTH pseudopotential:

                   l      r(l)      h(i,j,l)

                   0    0.361757    7.905303   -1.731881
                                   -1.731881    4.471698
                   1    0.405285    3.866579


 MOLECULE KIND INFORMATION


 All atoms are their own molecule, skipping detailed information


 TOTAL NUMBERS AND MAXIMUM NUMBERS

  Total number of            - Atomic kinds:                                   2
                             - Atoms:                                        108
                             - Shell sets:                                   396
                             - Shells:                                       396
                             - Primitive Cartesian functions:                396
                             - Cartesian basis functions:                    864
                             - Spherical basis functions:                    828

  Maximum angular momentum of- Orbital basis functions:                        2
                             - Local part of the GTH pseudopotential:          0
                             - Non-local part of the GTH pseudopotential:      4


 MODULE QUICKSTEP:  ATOMIC COORDINATES IN angstrom

 Atom  Kind  Element       X           Y           Z          Z(eff)       Mass
    1   1 Mo  42       0.000000    1.818650    3.075000       6.0000     95.9600
    2   2 S   16       0.000000    3.637310    1.488300       6.0000     32.0650
    3   2 S   16       0.000000    3.637310    4.661700       6.0000     32.0650
    4   1 Mo  42       3.150000    1.818650    3.075000       6.0000     95.9600
    5   2 S   16       3.150000    3.637310    1.488300       6.0000     32.0650
    6   2 S   16       3.150000    3.637310    4.661700       6.0000     32.0650
    7   1 Mo  42       6.300000    1.818650    3.075000       6.0000     95.9600
    8   2 S   16       6.300000    3.637310    1.488300       6.0000     32.0650
    9   2 S   16       6.300000    3.637310    4.661700       6.0000     32.0650
   10   1 Mo  42       9.450000    1.818650    3.075000       6.0000     95.9600
   11   2 S   16       9.450000    3.637310    1.488300       6.0000     32.0650
   12   2 S   16       9.450000    3.637310    4.661700       6.0000     32.0650
   13   1 Mo  42      12.600000    1.818650    3.075000       6.0000     95.9600
   14   2 S   16      12.600000    3.637310    1.488300       6.0000     32.0650
   15   2 S   16      12.600000    3.637310    4.661700       6.0000     32.0650
   16   1 Mo  42      15.750000    1.818650    3.075000       6.0000     95.9600
   17   2 S   16      15.750000    3.637310    1.488300       6.0000     32.0650
   18   2 S   16      15.750000    3.637310    4.661700       6.0000     32.0650
   19   1 Mo  42      -1.575000    4.546630    3.075000       6.0000     95.9600
   20   2 S   16      -1.575000    6.365290    1.488300       6.0000     32.0650
   21   2 S   16      -1.575000    6.365290    4.661700       6.0000     32.0650
   22   1 Mo  42       1.575000    4.546630    3.075000       6.0000     95.9600
   23   2 S   16       1.575000    6.365290    1.488300       6.0000     32.0650
   24   2 S   16       1.575000    6.365290    4.661700       6.0000     32.0650
   25   1 Mo  42       4.725000    4.546630    3.075000       6.0000     95.9600
   26   2 S   16       4.725000    6.365290    1.488300       6.0000     32.0650
   27   2 S   16       4.725000    6.365290    4.661700       6.0000     32.0650
   28   1 Mo  42       7.875000    4.546630    3.075000       6.0000     95.9600
   29   2 S   16       7.875000    6.365290    1.488300       6.0000     32.0650
   30   2 S   16       7.875000    6.365290    4.661700       6.0000     32.0650
   31   1 Mo  42      11.025000    4.546630    3.075000       6.0000     95.9600
   32   2 S   16      11.025000    6.365290    1.488300       6.0000     32.0650
   33   2 S   16      11.025000    6.365290    4.661700       6.0000     32.0650
   34   1 Mo  42      14.175000    4.546630    3.075000       6.0000     95.9600
   35   2 S   16      14.175000    6.365290    1.488300       6.0000     32.0650
   36   2 S   16      14.175000    6.365290    4.661700       6.0000     32.0650
   37   1 Mo  42      -3.150000    7.274610    3.075000       6.0000     95.9600
   38   2 S   16      -3.150000    9.093270    1.488300       6.0000     32.0650
   39   2 S   16      -3.150000    9.093270    4.661700       6.0000     32.0650
   40   1 Mo  42       0.000000    7.274610    3.075000       6.0000     95.9600
   41   2 S   16       0.000000    9.093270    1.488300       6.0000     32.0650
   42   2 S   16       0.000000    9.093270    4.661700       6.0000     32.0650
   43   1 Mo  42       3.150000    7.274610    3.075000       6.0000     95.9600
   44   2 S   16       3.150000    9.093270    1.488300       6.0000     32.0650
   45   2 S   16       3.150000    9.093270    4.661700       6.0000     32.0650
   46   1 Mo  42       6.300000    7.274610    3.075000       6.0000     95.9600
   47   2 S   16       6.300000    9.093270    1.488300       6.0000     32.0650
   48   2 S   16       6.300000    9.093270    4.661700       6.0000     32.0650
   49   1 Mo  42       9.450000    7.274610    3.075000       6.0000     95.9600
   50   2 S   16       9.450000    9.093270    1.488300       6.0000     32.0650
   51   2 S   16       9.450000    9.093270    4.661700       6.0000     32.0650
   52   1 Mo  42      12.600000    7.274610    3.075000       6.0000     95.9600
   53   2 S   16      12.600000    9.093270    1.488300       6.0000     32.0650
   54   2 S   16      12.600000    9.093270    4.661700       6.0000     32.0650
   55   1 Mo  42      -4.725000   10.002590    3.075000       6.0000     95.9600
   56   2 S   16      -4.725000   11.821250    1.488300       6.0000     32.0650
   57   2 S   16      -4.725000   11.821250    4.661700       6.0000     32.0650
   58   1 Mo  42      -1.575000   10.002590    3.075000       6.0000     95.9600
   59   2 S   16      -1.575000   11.821250    1.488300       6.0000     32.0650
   60   2 S   16      -1.575000   11.821250    4.661700       6.0000     32.0650
   61   1 Mo  42       1.575000   10.002590    3.075000       6.0000     95.9600
   62   2 S   16       1.575000   11.821250    1.488300       6.0000     32.0650
   63   2 S   16       1.575000   11.821250    4.661700       6.0000     32.0650
   64   1 Mo  42       4.725000   10.002590    3.075000       6.0000     95.9600
   65   2 S   16       4.725000   11.821250    1.488300       6.0000     32.0650
   66   2 S   16       4.725000   11.821250    4.661700       6.0000     32.0650
   67   1 Mo  42       7.875000   10.002590    3.075000       6.0000     95.9600
   68   2 S   16       7.875000   11.821250    1.488300       6.0000     32.0650
   69   2 S   16       7.875000   11.821250    4.661700       6.0000     32.0650
   70   1 Mo  42      11.025000   10.002590    3.075000       6.0000     95.9600
   71   2 S   16      11.025000   11.821250    1.488300       6.0000     32.0650
   72   2 S   16      11.025000   11.821250    4.661700       6.0000     32.0650
   73   1 Mo  42      -6.300000   12.730570    3.075000       6.0000     95.9600
   74   2 S   16      -6.300000   14.549230    1.488300       6.0000     32.0650
   75   2 S   16      -6.300000   14.549230    4.661700       6.0000     32.0650
   76   1 Mo  42      -3.150000   12.730570    3.075000       6.0000     95.9600
   77   2 S   16      -3.150000   14.549230    1.488300       6.0000     32.0650
   78   2 S   16      -3.150000   14.549230    4.661700       6.0000     32.0650
   79   1 Mo  42       0.000000   12.730570    3.075000       6.0000     95.9600
   80   2 S   16       0.000000   14.549230    1.488300       6.0000     32.0650
   81   2 S   16       0.000000   14.549230    4.661700       6.0000     32.0650
   82   1 Mo  42       3.150000   12.730570    3.075000       6.0000     95.9600
   83   2 S   16       3.150000   14.549230    1.488300       6.0000     32.0650
   84   2 S   16       3.150000   14.549230    4.661700       6.0000     32.0650
   85   1 Mo  42       6.300000   12.730570    3.075000       6.0000     95.9600
   86   2 S   16       6.300000   14.549230    1.488300       6.0000     32.0650
   87   2 S   16       6.300000   14.549230    4.661700       6.0000     32.0650
   88   1 Mo  42       9.450000   12.730570    3.075000       6.0000     95.9600
   89   2 S   16       9.450000   14.549230    1.488300       6.0000     32.0650
   90   2 S   16       9.450000   14.549230    4.661700       6.0000     32.0650
   91   1 Mo  42      -7.875000   15.458550    3.075000       6.0000     95.9600
   92   2 S   16      -7.875000   17.277210    1.488300       6.0000     32.0650
   93   2 S   16      -7.875000   17.277210    4.661700       6.0000     32.0650
   94   1 Mo  42      -4.725000   15.458550    3.075000       6.0000     95.9600
   95   2 S   16      -4.725000   17.277210    1.488300       6.0000     32.0650
   96   2 S   16      -4.725000   17.277210    4.661700       6.0000     32.0650
   97   1 Mo  42      -1.575000   15.458550    3.075000       6.0000     95.9600
   98   2 S   16      -1.575000   17.277210    1.488300       6.0000     32.0650
   99   2 S   16      -1.575000   17.277210    4.661700       6.0000     32.0650
  100   1 Mo  42       1.575000   15.458550    3.075000       6.0000     95.9600
  101   2 S   16       1.575000   17.277210    1.488300       6.0000     32.0650
  102   2 S   16       1.575000   17.277210    4.661700       6.0000     32.0650
  103   1 Mo  42       4.725000   15.458550    3.075000       6.0000     95.9600
  104   2 S   16       4.725000   17.277210    1.488300       6.0000     32.0650
  105   2 S   16       4.725000   17.277210    4.661700       6.0000     32.0650
  106   1 Mo  42       7.875000   15.458550    3.075000       6.0000     95.9600
  107   2 S   16       7.875000   17.277210    1.488300       6.0000     32.0650
  108   2 S   16       7.875000   17.277210    4.661700       6.0000     32.0650




 SCF PARAMETERS         Density guess:                                   RESTART
                        --------------------------------------------------------
                        max_scf:                                              40
                        max_scf_history:                                       0
                        max_diis:                                              4
                        --------------------------------------------------------
                        eps_scf:                                        1.00E-05
                        eps_scf_history:                                0.00E+00
                        eps_diis:                                       1.00E-01
                        eps_eigval:                                     1.00E-05
                        --------------------------------------------------------
                        level_shift [a.u.]:                             0.000000
                        --------------------------------------------------------
                        Outer loop SCF in use 
                        No variables optimised in outer loop
                        eps_scf                                         1.00E-05
                        max_scf                                               50
                        No outer loop optimization
                        step_size                                       5.00E-01

 PW_GRID| Information for grid number                                          1
 PW_GRID| Grid distributed over                                    36 processors
 PW_GRID| Real space group dimensions                                    36    1
 PW_GRID| the grid is blocked:                                                NO
 PW_GRID| Cutoff [a.u.]                                                    150.0
 PW_GRID| spherical cutoff:                                                   NO
 PW_GRID|   Bounds   1           -100      99                Points:         200
 PW_GRID|   Bounds   2           -100      99                Points:         200
 PW_GRID|   Bounds   3            -54      53                Points:         108
 PW_GRID| Volume element (a.u.^3)  0.4832E-02     Volume (a.u.^3)     20876.1711
 PW_GRID| Grid span                                                    FULLSPACE
 PW_GRID|   Distribution                         Average         Max         Min
 PW_GRID|   G-Vectors                           120000.0      120000      120000
 PW_GRID|   G-Rays                                 600.0         600         600
 PW_GRID|   Real Space Points                   120000.0      129600      108000

 PW_GRID| Information for grid number                                          2
 PW_GRID| Number of the reference grid                                         1
 PW_GRID| Grid distributed over                                    36 processors
 PW_GRID| Real space group dimensions                                    36    1
 PW_GRID| the grid is blocked:                                                NO
 PW_GRID| Cutoff [a.u.]                                                     50.0
 PW_GRID| spherical cutoff:                                                   NO
 PW_GRID|   Bounds   1            -60      59                Points:         120
 PW_GRID|   Bounds   2            -60      59                Points:         120
 PW_GRID|   Bounds   3            -32      31                Points:          64
 PW_GRID| Volume element (a.u.^3)  0.2265E-01     Volume (a.u.^3)     20876.1711
 PW_GRID| Grid span                                                    FULLSPACE
 PW_GRID|   Distribution                         Average         Max         Min
 PW_GRID|   G-Vectors                            25600.0       26280       24120
 PW_GRID|   G-Rays                                 213.3         219         201
 PW_GRID|   Real Space Points                    25600.0       30720       23040

 PW_GRID| Information for grid number                                          3
 PW_GRID| Number of the reference grid                                         1
 PW_GRID| Grid distributed over                                    36 processors
 PW_GRID| Real space group dimensions                                    36    1
 PW_GRID| the grid is blocked:                                                NO
 PW_GRID| Cutoff [a.u.]                                                     16.7
 PW_GRID| spherical cutoff:                                                   NO
 PW_GRID|   Bounds   1            -36      35                Points:          72
 PW_GRID|   Bounds   2            -36      35                Points:          72
 PW_GRID|   Bounds   3            -18      17                Points:          36
 PW_GRID| Volume element (a.u.^3)  0.1119         Volume (a.u.^3)     20876.1711
 PW_GRID| Grid span                                                    FULLSPACE
 PW_GRID|   Distribution                         Average         Max         Min
 PW_GRID|   G-Vectors                             5184.0        5760        4608
 PW_GRID|   G-Rays                                  72.0          80          64
 PW_GRID|   Real Space Points                     5184.0        5184        5184

 PW_GRID| Information for grid number                                          4
 PW_GRID| Number of the reference grid                                         1
 PW_GRID| Grid distributed over                                    36 processors
 PW_GRID| Real space group dimensions                                    36    1
 PW_GRID| the grid is blocked:                                                NO
 PW_GRID| Cutoff [a.u.]                                                      5.6
 PW_GRID| spherical cutoff:                                                   NO
 PW_GRID|   Bounds   1            -20      19                Points:          40
 PW_GRID|   Bounds   2            -20      19                Points:          40
 PW_GRID|   Bounds   3            -12      11                Points:          24
 PW_GRID| Volume element (a.u.^3)  0.5437         Volume (a.u.^3)     20876.1711
 PW_GRID| Grid span                                                    FULLSPACE
 PW_GRID|   Distribution                         Average         Max         Min
 PW_GRID|   G-Vectors                             1066.7        1160         960
 PW_GRID|   G-Rays                                  26.7          29          24
 PW_GRID|   Real Space Points                     1066.7        1920         960

 POISSON| Solver                                                        PERIODIC
 POISSON| Periodicity                                                        XYZ

 RS_GRID| Information for grid number                                          1
 RS_GRID|   Bounds   1           -100      99                Points:         200
 RS_GRID|   Bounds   2           -100      99                Points:         200
 RS_GRID|   Bounds   3            -54      53                Points:         108
 RS_GRID| Real space fully replicated
 RS_GRID| Group size                                                           1

 RS_GRID| Information for grid number                                          2
 RS_GRID|   Bounds   1            -60      59                Points:         120
 RS_GRID|   Bounds   2            -60      59                Points:         120
 RS_GRID|   Bounds   3            -32      31                Points:          64
 RS_GRID| Real space fully replicated
 RS_GRID| Group size                                                           1

 RS_GRID| Information for grid number                                          3
 RS_GRID|   Bounds   1            -36      35                Points:          72
 RS_GRID|   Bounds   2            -36      35                Points:          72
 RS_GRID|   Bounds   3            -18      17                Points:          36
 RS_GRID| Real space fully replicated
 RS_GRID| Group size                                                           1

 RS_GRID| Information for grid number                                          4
 RS_GRID|   Bounds   1            -20      19                Points:          40
 RS_GRID|   Bounds   2            -20      19                Points:          40
 RS_GRID|   Bounds   3            -12      11                Points:          24
 RS_GRID| Real space fully replicated
 RS_GRID| Group size                                                           1

 *** WARNING in hfx_types.F:1969 :: Periodic Hartree Fock calculation      ***
 *** requested with use of a truncated or shortrange potential. The cutoff ***
 *** radius is larger than half the minimal cell dimension. This may lead  ***
 *** to unphysical total energies. Reduce the cutoff radius in order to    ***
 *** avoid possible problems.                                              ***


  HFX_INFO| Replica ID:                                                        1
  HFX_INFO| FRACTION:                                               1.0000000000
  HFX_INFO| Interaction Potential:                                     TRUNCATED
  HFX_INFO| Cutoff Radius [angstrom]:                               9.0000000000
  HFX_INFO| EPS_SCHWARZ:                                                 1.0E-06
  HFX_INFO| EPS_SCHWARZ_FORCES                                           1.0E-06
  HFX_INFO| EPS_STORAGE_SCALING:                                         1.0E-01
  HFX_INFO| NBINS:                                                            64
  HFX_INFO| BLOCK_SIZE:                                                        2
  HFX_INFO| NUMBER_OF_SHELLS:                                               AUTO
  HFX_INFO| Number of periodic shells considered:                             -1
  HFX_INFO| Number of periodic cells considered:                              23


 Number of electrons:                                                        648
 Number of occupied orbitals:                                                324
 Number of molecular orbitals:                                               324

 Number of orbital functions:                                                828
 Number of independent orbital functions:                                    828

 Extrapolation method: initial_guess


 SCF WAVEFUNCTION OPTIMIZATION

  ----------------------------------- OT ---------------------------------------
  Minimizer      : CG                  : conjugate gradient
  Preconditioner : FULL_SINGLE_INVERSE : inversion of 
                                         H + eS - 2*(Sc)(c^T*H*c+const)(Sc)^T
  Precond_solver : DEFAULT
  Line search    : 2PNT                : 2 energies, one gradient
  stepsize       :    0.08000000                  energy_gap     :    0.08000000
  eps_taylor     :   0.10000E-15                  max_taylor     :             4
  ----------------------------------- OT ---------------------------------------

  Step     Update method      Time    Convergence         Total energy    Change
  ------------------------------------------------------------------------------

  HFX_MEM_INFO| Est. max. program size before HFX [MiB]:                     274
  HFX_MEM_INFO| Number of cart. primitive ERI's calculated:            928861503
  HFX_MEM_INFO| Number of sph. ERI's calculated:                       292360609
  HFX_MEM_INFO| Number of sph. ERI's stored in-core:                   101869688
  HFX_MEM_INFO| Number of sph. ERI's stored on disk:                           0
  HFX_MEM_INFO| Number of sph. ERI's calculated on the fly:                    0
  HFX_MEM_INFO| Total memory consumption ERI's RAM [MiB]:                    106
  HFX_MEM_INFO| Whereof max-vals [MiB]:                                        7
  HFX_MEM_INFO| Total compression factor ERI's RAM:                         7.40
  HFX_MEM_INFO| Total memory consumption ERI's disk [MiB]:                     0
  HFX_MEM_INFO| Total compression factor ERI's disk:                        0.00
  HFX_MEM_INFO| Size of density/Fock matrix [MiB]:                             4
  HFX_MEM_INFO| Size of buffers [MiB]:                                         1
  HFX_MEM_INFO| Number of periodic image cells considered:                    23
  HFX_MEM_INFO| Est. max. program size after HFX  [MiB]:                     313

     1 OT CG       0.80E-01    2.0     0.00170013      -897.9438909005 -8.98E+02
     2 OT LS       0.18E+00    0.5                     -897.9924389619
     3 OT CG       0.18E+00    0.8     0.00024742      -898.0144078342 -7.05E-02
     4 OT LS       0.25E+00    0.5                     -898.0162415349
     5 OT CG       0.25E+00    0.7     0.00007871      -898.0163851854 -1.98E-03
     6 OT LS       0.23E+00    0.4                     -898.0165709944
     7 OT CG       0.23E+00    0.8     0.00002220      -898.0165733504 -1.88E-04
     8 OT LS       0.29E+00    0.4                     -898.0165917971
     9 OT CG       0.29E+00    0.7     0.00000951      -898.0165928467 -1.95E-05

  *** SCF run converged in     9 steps ***


  Electronic density on regular grids:       -648.0000000000        0.0000000000
  Core density on regular grids:              648.0000000000        0.0000000000
  Total charge density on r-space grids:        0.0000000000
  Total charge density g-space grids:          -0.0000000000

  Overlap energy of the core charge distribution:               0.00003919135878
  Self energy of the core charge distribution:              -2263.95339448397044
  Core Hamiltonian energy:                                    766.44788207108536
  Hartree energy:                                             835.49611141536457
  Exchange-correlation energy:                                  0.00000000000000
  Hartree-Fock Exchange energy:                              -236.00723104053253

  Total energy:                                              -898.01659284669449

  outer SCF iter =    1 RMS gradient =   0.95E-05 energy =       -898.0165928467
  outer SCF loop converged in   1 iterations or    9 steps


 !-----------------------------------------------------------------------------!
                     Mulliken Population Analysis

 #  Atom  Element  Kind  Atomic population                           Net charge
       1     Mo       1          2.740712                              3.259288
       2     S        2          7.625076                             -1.625076
       3     S        2          7.625093                             -1.625093
       4     Mo       1          2.741492                              3.258508
       5     S        2          7.635575                             -1.635575
       6     S        2          7.635566                             -1.635566
       7     Mo       1          2.740697                              3.259303
       8     S        2          7.621551                             -1.621551
       9     S        2          7.621552                             -1.621552
      10     Mo       1          2.741453                              3.258547
      11     S        2          7.629000                             -1.629000
      12     S        2          7.628994                             -1.628994
      13     Mo       1          2.741238                              3.258762
      14     S        2          7.632830                             -1.632830
      15     S        2          7.632825                             -1.632825
      16     Mo       1          2.741400                              3.258600
      17     S        2          7.639143                             -1.639143
      18     S        2          7.639101                             -1.639101
      19     Mo       1          2.741861                              3.258139
      20     S        2          7.638051                             -1.638051
      21     S        2          7.638046                             -1.638046
      22     Mo       1          2.741323                              3.258677
      23     S        2          7.627992                             -1.627992
      24     S        2          7.627994                             -1.627994
      25     Mo       1          2.741385                              3.258615
      26     S        2          7.629914                             -1.629914
      27     S        2          7.629921                             -1.629921
      28     Mo       1          2.741118                              3.258882
      29     S        2          7.626875                             -1.626875
      30     S        2          7.626868                             -1.626868
      31     Mo       1          2.741659                              3.258341
      32     S        2          7.625986                             -1.625986
      33     S        2          7.625988                             -1.625988
      34     Mo       1          2.741835                              3.258165
      35     S        2          7.626712                             -1.626712
      36     S        2          7.626737                             -1.626737
      37     Mo       1          2.740945                              3.259055
      38     S        2          7.622306                             -1.622306
      39     S        2          7.622291                             -1.622291
      40     Mo       1          2.741804                              3.258196
      41     S        2          7.627774                             -1.627774
      42     S        2          7.627779                             -1.627779
      43     Mo       1          2.741410                              3.258590
      44     S        2          7.631511                             -1.631511
      45     S        2          7.631504                             -1.631504
      46     Mo       1          2.741232                              3.258768
      47     S        2          7.627959                             -1.627959
      48     S        2          7.627971                             -1.627971
      49     Mo       1          2.741407                              3.258593
      50     S        2          7.634367                             -1.634367
      51     S        2          7.634357                             -1.634357
      52     Mo       1          2.740569                              3.259431
      53     S        2          7.623764                             -1.623764
      54     S        2          7.623761                             -1.623761
      55     Mo       1          2.741248                              3.258752
      56     S        2          7.631271                             -1.631271
      57     S        2          7.631281                             -1.631281
      58     Mo       1          2.740843                              3.259157
      59     S        2          7.635389                             -1.635389
      60     S        2          7.635392                             -1.635392
      61     Mo       1          2.741217                              3.258783
      62     S        2          7.630505                             -1.630505
      63     S        2          7.630508                             -1.630508
      64     Mo       1          2.741638                              3.258362
      65     S        2          7.633071                             -1.633071
      66     S        2          7.633065                             -1.633065
      67     Mo       1          2.741347                              3.258653
      68     S        2          7.625752                             -1.625752
      69     S        2          7.625758                             -1.625758
      70     Mo       1          2.741391                              3.258609
      71     S        2          7.626802                             -1.626802
      72     S        2          7.626792                             -1.626792
      73     Mo       1          2.742074                              3.257926
      74     S        2          7.636484                             -1.636484
      75     S        2          7.636481                             -1.636481
      76     Mo       1          2.741267                              3.258733
      77     S        2          7.627964                             -1.627964
      78     S        2          7.627963                             -1.627963
      79     Mo       1          2.742063                              3.257937
      80     S        2          7.632849                             -1.632849
      81     S        2          7.632854                             -1.632854
      82     Mo       1          2.741277                              3.258723
      83     S        2          7.622522                             -1.622522
      84     S        2          7.622521                             -1.622521
      85     Mo       1          2.741736                              3.258264
      86     S        2          7.629567                             -1.629567
      87     S        2          7.629570                             -1.629570
      88     Mo       1          2.740645                              3.259355
      89     S        2          7.627252                             -1.627252
      90     S        2          7.627251                             -1.627251
      91     Mo       1          2.741774                              3.258226
      92     S        2          7.631906                             -1.631906
      93     S        2          7.631905                             -1.631905
      94     Mo       1          2.741396                              3.258604
      95     S        2          7.626604                             -1.626604
      96     S        2          7.626609                             -1.626609
      97     Mo       1          2.741132                              3.258868
      98     S        2          7.627901                             -1.627901
      99     S        2          7.627900                             -1.627900
     100     Mo       1          2.741651                              3.258349
     101     S        2          7.634031                             -1.634031
     102     S        2          7.634037                             -1.634037
     103     Mo       1          2.740836                              3.259164
     104     S        2          7.623295                             -1.623295
     105     S        2          7.623295                             -1.623295
     106     Mo       1          2.741310                              3.258690
     107     S        2          7.626269                             -1.626269
     108     S        2          7.626265                             -1.626265
 # Total charge                            648.000000                 -0.000000

 !-----------------------------------------------------------------------------!

 !-----------------------------------------------------------------------------!
                           Hirshfeld Charges

  #Atom  Element  Kind  Ref Charge     Population                    Net charge
      1       Mo     1       6.000          4.481                         1.519
      2       S      2       6.000          6.755                        -0.755
      3       S      2       6.000          6.755                        -0.755
      4       Mo     1       6.000          4.483                         1.517
      5       S      2       6.000          6.765                        -0.765
      6       S      2       6.000          6.765                        -0.765
      7       Mo     1       6.000          4.481                         1.519
      8       S      2       6.000          6.751                        -0.751
      9       S      2       6.000          6.751                        -0.751
     10       Mo     1       6.000          4.482                         1.518
     11       S      2       6.000          6.759                        -0.759
     12       S      2       6.000          6.759                        -0.759
     13       Mo     1       6.000          4.482                         1.518
     14       S      2       6.000          6.763                        -0.763
     15       S      2       6.000          6.763                        -0.763
     16       Mo     1       6.000          4.482                         1.518
     17       S      2       6.000          6.769                        -0.769
     18       S      2       6.000          6.769                        -0.769
     19       Mo     1       6.000          4.483                         1.517
     20       S      2       6.000          6.768                        -0.768
     21       S      2       6.000          6.768                        -0.768
     22       Mo     1       6.000          4.482                         1.518
     23       S      2       6.000          6.758                        -0.758
     24       S      2       6.000          6.758                        -0.758
     25       Mo     1       6.000          4.482                         1.518
     26       S      2       6.000          6.760                        -0.760
     27       S      2       6.000          6.760                        -0.760
     28       Mo     1       6.000          4.481                         1.519
     29       S      2       6.000          6.756                        -0.756
     30       S      2       6.000          6.756                        -0.756
     31       Mo     1       6.000          4.483                         1.517
     32       S      2       6.000          6.755                        -0.755
     33       S      2       6.000          6.755                        -0.755
     34       Mo     1       6.000          4.483                         1.517
     35       S      2       6.000          6.756                        -0.756
     36       S      2       6.000          6.756                        -0.756
     37       Mo     1       6.000          4.482                         1.518
     38       S      2       6.000          6.751                        -0.751
     39       S      2       6.000          6.751                        -0.751
     40       Mo     1       6.000          4.483                         1.517
     41       S      2       6.000          6.757                        -0.757
     42       S      2       6.000          6.757                        -0.757
     43       Mo     1       6.000          4.482                         1.518
     44       S      2       6.000          6.761                        -0.761
     45       S      2       6.000          6.761                        -0.761
     46       Mo     1       6.000          4.482                         1.518
     47       S      2       6.000          6.757                        -0.757
     48       S      2       6.000          6.757                        -0.757
     49       Mo     1       6.000          4.482                         1.518
     50       S      2       6.000          6.764                        -0.764
     51       S      2       6.000          6.764                        -0.764
     52       Mo     1       6.000          4.481                         1.519
     53       S      2       6.000          6.753                        -0.753
     54       S      2       6.000          6.753                        -0.753
     55       Mo     1       6.000          4.482                         1.518
     56       S      2       6.000          6.761                        -0.761
     57       S      2       6.000          6.761                        -0.761
     58       Mo     1       6.000          4.482                         1.518
     59       S      2       6.000          6.765                        -0.765
     60       S      2       6.000          6.765                        -0.765
     61       Mo     1       6.000          4.482                         1.518
     62       S      2       6.000          6.760                        -0.760
     63       S      2       6.000          6.760                        -0.760
     64       Mo     1       6.000          4.483                         1.517
     65       S      2       6.000          6.763                        -0.763
     66       S      2       6.000          6.763                        -0.763
     67       Mo     1       6.000          4.482                         1.518
     68       S      2       6.000          6.755                        -0.755
     69       S      2       6.000          6.755                        -0.755
     70       Mo     1       6.000          4.482                         1.518
     71       S      2       6.000          6.756                        -0.756
     72       S      2       6.000          6.756                        -0.756
     73       Mo     1       6.000          4.483                         1.517
     74       S      2       6.000          6.766                        -0.766
     75       S      2       6.000          6.766                        -0.766
     76       Mo     1       6.000          4.482                         1.518
     77       S      2       6.000          6.758                        -0.758
     78       S      2       6.000          6.758                        -0.758
     79       Mo     1       6.000          4.483                         1.517
     80       S      2       6.000          6.763                        -0.763
     81       S      2       6.000          6.763                        -0.763
     82       Mo     1       6.000          4.482                         1.518
     83       S      2       6.000          6.752                        -0.752
     84       S      2       6.000          6.752                        -0.752
     85       Mo     1       6.000          4.483                         1.517
     86       S      2       6.000          6.759                        -0.759
     87       S      2       6.000          6.759                        -0.759
     88       Mo     1       6.000          4.481                         1.519
     89       S      2       6.000          6.757                        -0.757
     90       S      2       6.000          6.757                        -0.757
     91       Mo     1       6.000          4.483                         1.517
     92       S      2       6.000          6.762                        -0.762
     93       S      2       6.000          6.762                        -0.762
     94       Mo     1       6.000          4.482                         1.518
     95       S      2       6.000          6.756                        -0.756
     96       S      2       6.000          6.756                        -0.756
     97       Mo     1       6.000          4.482                         1.518
     98       S      2       6.000          6.757                        -0.757
     99       S      2       6.000          6.757                        -0.757
    100       Mo     1       6.000          4.482                         1.518
    101       S      2       6.000          6.764                        -0.764
    102       S      2       6.000          6.764                        -0.764
    103       Mo     1       6.000          4.481                         1.519
    104       S      2       6.000          6.753                        -0.753
    105       S      2       6.000          6.753                        -0.753
    106       Mo     1       6.000          4.482                         1.518
    107       S      2       6.000          6.756                        -0.756
    108       S      2       6.000          6.756                        -0.756

  Total Charge                                                           -0.000
 !-----------------------------------------------------------------------------!

 ENERGY| Total FORCE_EVAL ( QS ) energy [a.u.]:             -898.016592846694493

 -------------------------------------------------------------------------------
 -                                                                             -
 -                                DBCSR STATISTICS                             -
 -                                                                             -
 -------------------------------------------------------------------------------
 COUNTER                                    TOTAL       BLAS       SMM       ACC
 flops     7 x     4 x     4                16128       0.0%    100.0%      0.0%
 flops     4 x     4 x   138                26496       0.0%    100.0%      0.0%
 flops     8 x     4 x     4                36864       0.0%    100.0%      0.0%
 flops     7 x    32 x     4               645120       0.0%    100.0%      0.0%
 flops     7 x     4 x    32               645120       0.0%    100.0%      0.0%
 flops     4 x    32 x   138              1059840       0.0%    100.0%      0.0%
 flops    32 x     4 x   138              1059840       0.0%    100.0%      0.0%
 flops     8 x    32 x     4              1474560       0.0%    100.0%      0.0%
 flops     8 x     4 x    32              1474560       0.0%    100.0%      0.0%
 flops    32 x    32 x    32              3538944       0.0%    100.0%      0.0%
 flops    32 x    32 x    36              3981312       0.0%    100.0%      0.0%
 flops    32 x    36 x    32              3981312       0.0%    100.0%      0.0%
 flops    36 x    32 x    32              3981312       0.0%    100.0%      0.0%
 flops    32 x    36 x    36              4478976       0.0%    100.0%      0.0%
 flops    36 x    32 x    36              4478976       0.0%    100.0%      0.0%
 flops    36 x    36 x    32              4478976       0.0%    100.0%      0.0%
 flops    36 x    36 x    36              5038848       0.0%    100.0%      0.0%
 flops     7 x     4 x     7              9144576       0.0%    100.0%      0.0%
 flops     7 x     4 x     8             20901888       0.0%    100.0%      0.0%
 flops     8 x     4 x     7             20901888       0.0%    100.0%      0.0%
 flops     7 x     7 x    32             22974336       0.0%    100.0%      0.0%
 flops     7 x     7 x    36             25846128       0.0%    100.0%      0.0%
 flops    32 x    32 x    64             28311552       0.0%    100.0%      0.0%
 flops    32 x    64 x    32             28311552       0.0%    100.0%      0.0%
 flops    64 x    32 x    32             28311552       0.0%    100.0%      0.0%
 flops    32 x    36 x    64             31850496       0.0%    100.0%      0.0%
 flops    32 x    64 x    36             31850496       0.0%    100.0%      0.0%
 flops    36 x    32 x    64             31850496       0.0%    100.0%      0.0%
 flops    36 x    64 x    32             31850496       0.0%    100.0%      0.0%
 flops    64 x    32 x    36             31850496       0.0%    100.0%      0.0%
 flops    64 x    36 x    32             31850496       0.0%    100.0%      0.0%
 flops    36 x    36 x    64             35831808       0.0%    100.0%      0.0%
 flops    36 x    64 x    36             35831808       0.0%    100.0%      0.0%
 flops    64 x    36 x    36             35831808       0.0%    100.0%      0.0%
 flops    32 x    36 x   138             43877376       0.0%    100.0%      0.0%
 flops    36 x    32 x   138             43877376       0.0%    100.0%      0.0%
 flops     8 x     4 x     8             47775744       0.0%    100.0%      0.0%
 flops    36 x    36 x   138             49362048       0.0%    100.0%      0.0%
 flops     7 x     8 x    32             51093504       0.0%    100.0%      0.0%
 flops     8 x     7 x    32             51093504       0.0%    100.0%      0.0%
 flops   138 x    32 x    32             52568064       0.0%    100.0%      0.0%
 flops     7 x    32 x    32             56770560       0.0%    100.0%      0.0%
 flops     7 x     8 x    36             57480192       0.0%    100.0%      0.0%
 flops     8 x     7 x    36             57480192       0.0%    100.0%      0.0%
 flops   138 x    32 x    36             59139072       0.0%    100.0%      0.0%
 flops   138 x    36 x    32             59139072       0.0%    100.0%      0.0%
 flops   138 x    36 x    36             66531456       0.0%    100.0%      0.0%
 flops     8 x     8 x    32            118407168       0.0%    100.0%      0.0%
 flops     8 x    32 x    32            129761280       0.0%    100.0%      0.0%
 flops    32 x    32 x   138            132268032       0.0%    100.0%      0.0%
 flops     8 x     8 x    36            133208064       0.0%    100.0%      0.0%
 flops     7 x     7 x    64            183794688       0.0%    100.0%      0.0%
 flops    64 x    64 x    32            226492416       0.0%    100.0%      0.0%
 flops    32 x    64 x    64            226492416       0.0%    100.0%      0.0%
 flops    64 x    32 x    64            226492416       0.0%    100.0%      0.0%
 flops    64 x    64 x    36            254803968       0.0%    100.0%      0.0%
 flops    36 x    64 x    64            254803968       0.0%    100.0%      0.0%
 flops    64 x    36 x    64            254803968       0.0%    100.0%      0.0%
 flops   138 x    32 x   138            263264256       0.0%    100.0%      0.0%
 flops   138 x    36 x   138            296172288       0.0%    100.0%      0.0%
 flops    32 x    64 x   138            312016896       0.0%    100.0%      0.0%
 flops    64 x    32 x   138            312016896       0.0%    100.0%      0.0%
 flops    36 x    64 x   138            351019008       0.0%    100.0%      0.0%
 flops    64 x    36 x   138            351019008       0.0%    100.0%      0.0%
 flops     7 x     8 x    64            408748032       0.0%    100.0%      0.0%
 flops     8 x     7 x    64            408748032       0.0%    100.0%      0.0%
 flops   138 x    64 x    32            420544512       0.0%    100.0%      0.0%
 flops   138 x    32 x    64            420544512       0.0%    100.0%      0.0%
 flops   138 x    64 x    36            473112576       0.0%    100.0%      0.0%
 flops   138 x    36 x    64            473112576       0.0%    100.0%      0.0%
 flops     7 x    32 x     7            731566080       0.0%    100.0%      0.0%
 flops     8 x     8 x    64            947257344       0.0%    100.0%      0.0%
 flops     7 x    32 x     8           1672151040       0.0%    100.0%      0.0%
 flops     8 x    32 x     7           1672151040       0.0%    100.0%      0.0%
 flops    64 x    64 x    64           1811939328       0.0%    100.0%      0.0%
 flops   138 x    64 x   138           2106114048       0.0%    100.0%      0.0%
 flops    64 x    64 x   138           2496135168       0.0%    100.0%      0.0%
 flops   138 x    64 x    64           3364356096       0.0%    100.0%      0.0%
 flops     8 x    32 x     8           3822059520       0.0%    100.0%      0.0%
 flops inhomo. stacks                           0       0.0%      0.0%      0.0%
 flops total                        26.475264E+09       0.0%    100.0%      0.0%
 flops max/rank                    911.211600E+06       0.0%    100.0%      0.0%
 matmuls inhomo. stacks                         0       0.0%      0.0%      0.0%
 matmuls total                            2737224       0.0%    100.0%      0.0%
 number of processed stacks                 53196       0.0%    100.0%      0.0%
 average stack size                                     0.0      51.5       0.0
 marketing flops                    29.305088E+09
 -------------------------------------------------------------------------------
 # multiplications                            147
 max memory usage/rank             341.975040E+06
 # max total images/rank                        1
 # max 3D layers                                1
 # MPI messages exchanged                   52920
 MPI messages size (bytes):
  total size                         2.609258E+09
  min size                           0.000000E+00
  max size                         152.352000E+03
  average size                      49.305711E+03
 MPI breakdown and total messages size (bytes):
             size <=      128                 510                        0
       128 < size <=     8192                 705                  5775360
      8192 < size <=    32768               24525                582500480
     32768 < size <=   131072               22860               1362821760
    131072 < size <=  4194304                4320                658160640
   4194304 < size <= 16777216                   0                        0
  16777216 < size                               0                        0
 -------------------------------------------------------------------------------
 -                                                                             -
 -                      DBCSR MESSAGE PASSING PERFORMANCE                      -
 -                                                                             -
 -------------------------------------------------------------------------------
 ROUTINE             CALLS      AVE VOLUME [Bytes]
 MP_Bcast               80                     12.
 MP_Allreduce          920                     11.
 MP_Alltoall           497                  14625.
 MP_ISend             3524                  23702.
 MP_IRecv             3524                  22495.
 -------------------------------------------------------------------------------

 -------------------------------------------------------------------------------
 -                                                                             -
 -                                GRID STATISTICS                              -
 -                                                                             -
 -------------------------------------------------------------------------------
 LP    KERNEL             BACKEND                              COUNT     PERCENT
 1     collocate general  REF                                 153360      29.75%
 2     collocate general  REF                                  87840      17.04%
 0     collocate general  REF                                  77256      14.99%
 1     integrate general  REF                                  76680      14.88%
 2     integrate general  REF                                  43920       8.52%
 0     integrate general  REF                                  38628       7.49%
 3     collocate general  REF                                  23760       4.61%
 3     integrate general  REF                                  11880       2.30%
 4     collocate general  REF                                   1440       0.28%
 4     integrate general  REF                                    720       0.14%
 -------------------------------------------------------------------------------

 MEMORY| Estimated peak process memory [MiB]                                 327

 -------------------------------------------------------------------------------
 ----                             MULTIGRID INFO                            ----
 -------------------------------------------------------------------------------
 count for grid        1:           8100          cutoff [a.u.]          150.00
 count for grid        2:          40500          cutoff [a.u.]           50.00
 count for grid        3:          25344          cutoff [a.u.]           16.67
 count for grid        4:              0          cutoff [a.u.]            5.56
 total gridlevel count  :          73944

 -------------------------------------------------------------------------------
 -                                                                             -
 -                         MESSAGE PASSING PERFORMANCE                         -
 -                                                                             -
 -------------------------------------------------------------------------------

 ROUTINE             CALLS      AVE VOLUME [Bytes]
 MP_Group                4
 MP_Bcast              623                 242682.
 MP_Allreduce         1107                    701.
 MP_Sync                52
 MP_Alltoall            76                3644109.
 MP_ISendRecv         2905                 298984.
 MP_Wait              2905
 MP_Recv                10                 211968.
 -------------------------------------------------------------------------------


 -------------------------------------------------------------------------------
 -                                                                             -
 -                           R E F E R E N C E S                               -
 -                                                                             -
 -------------------------------------------------------------------------------
 
 CP2K version 10.0 (Development Version), the CP2K developers group (2022).
 CP2K is freely available from https://www.cp2k.org/ .

 Kuehne,Thomas D.; Iannuzzi,Marcella; Del Ben,Mauro;
 Rybkin,Vladimir V.; Seewald,Patrick; Stein,Frederick; Laino,Teodoro;
 Khaliullin,Rustam Z.; Schuett,Ole; Schiffmann,Florian; Golze,Dorothea;
 Wilhelm,Jan; Chulkov,Sergey; Bani-Hashemian,Mohammad Hossein;
 Weber,Valery; Borstnik,Urban; Taillefumier,Mathieu;
 Jakobovits,Alice Shoshana; Lazzaro,Alfio; Pabst,Hans; Mueller,Tiziano;
 Schade,Robert; Guidon,Manuel; Andermatt,Samuel; Holmberg,Nico;
 Schenter,Gregory K.; Hehn,Anna; Bussy,Augustin; Belleflamme,Fabian;
 Tabacchi,Gloria; Gloess,Andreas; Lass,Michael; Bethune,Iain;
 Mundy,Christopher J.; Plessl,Christian; Watkins,Matt;
 VandeVondele,Joost; Krack,Matthias; Hutter,Juerg. 
 The Journal of Chemical Physics, 152 (19), (2020). 
 CP2K: An electronic structure and molecular dynamics software package -
 Quickstep: Efficient and accurate electronic structure calculations.
 https://doi.org/10.1063/5.0007045

 Schuett, Ole; Messmer, Peter; Hutter, Juerg; VandeVondele, Joost. 
 Electronic Structure Calculations on Graphics Processing Units, John
 Wiley & Sons, Ltd, 173-190 (2016). 
 GPU-Accelerated Sparse Matrix-Matrix Multiplication for
 Linear Scaling Density Functional Theory.
 https://doi.org/10.1002/9781118670712.ch8

 Heinecke, A; Henry, G; Hutchinson, M; Pabst, H. 
 Proceedings of Intl. Supercomputing Conference, 981-991 (2016). 
 LIBXSMM: Accelerating Small Matrix Multiplications
 by Runtime Code Generation.
 https://doi.org/10.1109/SC.2016.83

 Borstnik, U; VandeVondele, J; Weber, V; Hutter, J. 
 PARALLEL COMPUTING, 40 (5-6), 47-58 (2014). 
 Sparse matrix multiplication: The distributed block-compressed sparse
 row library.
 https://doi.org/10.1016/j.parco.2014.03.012

 Hutter, J; Iannuzzi, M; Schiffmann, F; VandeVondele, J. 
 WIREs Comput Mol Sci., 4 (1), 15-25 (2014). 
 CP2K: atomistic simulations of condensed matter systems.
 https://doi.org/10.1002/wcms.1159

 Guidon, M; Hutter, J; VandeVondele, J. 
 JOURNAL OF CHEMICAL THEORY AND COMPUTATION, 5 (11), 3010-3021 (2009). 
 Robust Periodic Hartree-Fock Exchange for Large-Scale Simulations Using
 Gaussian Basis Sets.
 https://doi.org/10.1021/ct900494g

 Guidon, M; Schiffmann, F; Hutter, J; VandeVondele, J. 
 JOURNAL OF CHEMICAL PHYSICS, 128 (21), 214104 (2008). 
 Ab initio molecular dynamics using hybrid density functionals.
 https://doi.org/10.1063/1.2931945

 Krack, M. 
 THEORETICAL CHEMISTRY ACCOUNTS, 114 (1-3), 145-152 (2005). 
 Pseudopotentials for H to Kr optimized for gradient-corrected
 exchange-correlation functionals.
 https://doi.org/10.1007/s00214-005-0655-y

 VandeVondele, J; Krack, M; Mohamed, F; Parrinello, M; Chassaing, T;
 Hutter, J. COMPUTER PHYSICS COMMUNICATIONS, 167 (2), 103-128 (2005). 
 QUICKSTEP: Fast and accurate density functional calculations using a
 mixed Gaussian and plane waves approach.
 https://doi.org/10.1016/j.cpc.2004.12.014

 Frigo, M; Johnson, SG. 
 PROCEEDINGS OF THE IEEE, 93 (2), 216-231 (2005). 
 The design and implementation of FFTW3.
 https://doi.org/10.1109/JPROC.2004.840301

 VandeVondele, J; Hutter, J. 
 JOURNAL OF CHEMICAL PHYSICS, 118 (10), 4365-4369 (2003). 
 An efficient orbital transformation method for electronic structure
 calculations.
 https://doi.org/10.1063/1.1543154

 Hartwigsen, C; Goedecker, S; Hutter, J. 
 PHYSICAL REVIEW B, 58 (7), 3641-3662 (1998). 
 Relativistic separable dual-space Gaussian pseudopotentials from H to Rn.
 https://doi.org/10.1103/PhysRevB.58.3641

 Lippert, G; Hutter, J; Parrinello, M. 
 MOLECULAR PHYSICS, 92 (3), 477-487 (1997). 
 A hybrid Gaussian and plane wave density functional scheme.
 https://doi.org/10.1080/002689797170220

 Goedecker, S; Teter, M; Hutter, J. 
 PHYSICAL REVIEW B, 54 (3), 1703-1710 (1996). 
 Separable dual-space Gaussian pseudopotentials.
 https://doi.org/10.1103/PhysRevB.54.1703


 -------------------------------------------------------------------------------
 -                                                                             -
 -                                T I M I N G                                  -
 -                                                                             -
 -------------------------------------------------------------------------------
 SUBROUTINE                       CALLS  ASD         SELF TIME        TOTAL TIME
                                MAXIMUM       AVERAGE  MAXIMUM  AVERAGE  MAXIMUM
 CP2K                                 1  1.0    0.008    0.033    8.016    8.017
 qs_energies                          1  2.0    0.000    0.000    7.878    7.880
 scf_env_do_scf                       1  3.0    0.000    0.000    7.049    7.050
 scf_env_do_scf_inner_loop            9  4.0    0.000    0.001    5.100    5.103
 qs_ks_update_qs_env                 10  5.0    0.000    0.000    4.103    4.105
 rebuild_ks_matrix                    9  6.0    0.000    0.000    4.100    4.102
 qs_ks_build_kohn_sham_matrix         9  7.0    0.002    0.002    4.100    4.102
 qs_rho_update_rho                   10  5.0    0.000    0.000    2.812    2.815
 calculate_rho_elec                  10  6.0    0.006    0.007    2.812    2.815
 rs_pw_transfer                      63  8.9    0.001    0.002    2.375    2.740
 hfx_ks_matrix                        9  8.0    0.000    0.000    2.714    2.717
 integrate_four_center                9  9.0    0.024    0.387    2.712    2.716
 mp_waitall_1                     12313 13.3    2.304    2.707    2.304    2.707
 density_rs2pw                       10  7.0    0.000    0.001    1.841    2.189
 init_scf_loop                        1  4.0    0.000    0.000    1.945    1.945
 integrate_four_center_main           9 10.0    0.002    0.003    1.675    1.848
 integrate_four_center_bin          612 11.0    1.673    1.846    1.673    1.846
 rs_pw_transfer_RS2PW_150            12  8.8    0.173    0.215    1.393    1.795
 grid_collocate_task_list            10  7.0    0.944    1.273    0.944    1.273
 sum_up_and_integrate                 5  8.0    0.000    0.000    1.046    1.207
 integrate_v_rspace                   5  9.0    0.000    0.001    1.046    1.207
 dbcsr_multiply_generic             147  9.8    0.004    0.005    0.533    0.707
 potential_pw2rs                      5 10.0    0.000    0.000    0.682    0.683
 rs_pw_transfer_PW2RS_150             6 11.3    0.085    0.113    0.525    0.548
 pw_transfer                         94  8.8    0.007    0.009    0.534    0.547
 fft_wrap_pw1pw2                     76  9.8    0.001    0.001    0.516    0.525
 grid_integrate_task_list             5 10.0    0.364    0.524    0.364    0.524
 fft_wrap_pw1pw2_150                 31 10.4    0.034    0.041    0.419    0.439
 mp_sum_l                          1048  8.0    0.243    0.426    0.243    0.426
 fft3d_ps                            76 11.8    0.152    0.175    0.403    0.421
 mp_bcast_im                        337  7.2    0.400    0.411    0.400    0.411
 init_scf_run                         1  3.0    0.000    0.000    0.339    0.339
 scf_env_initial_rho_setup            1  4.0    0.000    0.001    0.339    0.339
 qs_scf_new_mos                       9  5.0    0.000    0.000    0.331    0.334
 qs_scf_loop_do_ot                    9  6.0    0.000    0.000    0.331    0.334
 ot_scf_mini                          9  7.0    0.000    0.000    0.302    0.304
 mp_sync                             52 10.6    0.204    0.289    0.204    0.289
 rs_pw_transfer_RS2PW_50             10  9.0    0.019    0.024    0.254    0.277
 mp_alltoall_z22v                    76 13.8    0.209    0.252    0.209    0.252
 multiply_cannon                    147 10.8    0.008    0.010    0.226    0.250
 scf_post_calculation_gpw             1  3.0    0.000    0.000    0.249    0.250
 write_available_results              1  4.0    0.000    0.000    0.249    0.249
 write_mo_free_results                1  5.0    0.001    0.002    0.249    0.249
 qs_energies_init_hamiltonians        1  3.0    0.000    0.000    0.241    0.241
 multiply_cannon_loop               147 11.8    0.004    0.004    0.200    0.226
 qs_env_update_s_mstruct              1  4.0    0.000    0.000    0.168    0.191
 calculate_rho_core                   1  5.0    0.003    0.004    0.165    0.188
 yz_to_x                             46 12.3    0.018    0.027    0.160    0.183
 integrate_four_center_load           9 10.0    0.000    0.000    0.170    0.171
 hfx_load_balance                     1 11.0    0.000    0.001    0.170    0.171
 ot_mini                              9  8.0    0.000    0.000    0.163    0.166
 qs_ot_get_derivative                 5  9.0    0.000    0.000    0.138    0.140
 rs_pw_transfer_PW2RS_50              5 12.0    0.012    0.016    0.115    0.136
 calculate_hirshfeld_normalizat       1  6.0    0.018    0.027    0.123    0.134
 mp_sum_d                           604  4.1    0.086    0.124    0.086    0.124
 hirshfeld_integration                1  6.0    0.013    0.020    0.112    0.112
 multiply_cannon_metrocomm3         882 12.8    0.002    0.002    0.057    0.109
 x_to_yz                             30 13.5    0.019    0.023    0.087    0.097
 build_core_hamiltonian_matrix        1  4.0    0.000    0.000    0.069    0.096
 qs_ot_get_derivative_taylor          5 10.0    0.000    0.000    0.093    0.095
 multiply_cannon_metrocomm1         882 12.8    0.002    0.002    0.051    0.091
 fft_wrap_pw1pw2_50                  15 11.0    0.003    0.004    0.075    0.090
 integrate_four_center_getP           9 10.0    0.006    0.008    0.084    0.087
 integrate_four_center_dist_KS        9 10.0    0.004    0.005    0.086    0.086
 hfx_load_balance_count               1 12.0    0.070    0.083    0.070    0.083
 hfx_load_balance_bin                 1 12.0    0.070    0.083    0.070    0.083
 calc_screening_functions             1 10.0    0.024    0.024    0.080    0.081
 make_m2s                           294 10.8    0.003    0.003    0.074    0.081
 -------------------------------------------------------------------------------

 The number of warnings for this run is : 1
 
 -------------------------------------------------------------------------------
  **** **** ******  **  PROGRAM ENDED AT                 2022-05-26 21:40:01.774
 ***** ** ***  *** **   PROGRAM RAN ON                                   tcopt11
 **    ****   ******    PROGRAM RAN BY                                   wilhelm
 ***** **    ** ** **   PROGRAM PROCESS ID                                 87226
  **** **  *******  **  PROGRAM STOPPED IN /data/wilhelm/55_check_HFX/5_HFX_MoS2
                                           _PERIODIC_XY/5_height_10A_E_
