 DBCSR| CPU Multiplication driver                                           XSMM
 DBCSR| Multrec recursion limit                                              512
 DBCSR| Multiplication stack size                                           1000
 DBCSR| Maximum elements for images                                    UNLIMITED
 DBCSR| Multiplicative factor virtual images                                   1
 DBCSR| Use multiplication densification                                       T
 DBCSR| Multiplication size stacks                                             3
 DBCSR| Use memory pool for CPU allocation                                     F
 DBCSR| Number of 3D layers                                               SINGLE
 DBCSR| Use MPI memory allocation                                              F
 DBCSR| Use RMA algorithm                                                      F
 DBCSR| Use Communication thread                                               T
 DBCSR| Communication thread load                                             87
 DBCSR| MPI: My node id                                                        0
 DBCSR| MPI: Number of nodes                                                  36
 DBCSR| OMP: Current number of threads                                         1
 DBCSR| OMP: Max number of threads                                             1
 DBCSR| Split modifier for TAS multiplication algorithm                  1.0E+00


  **** **** ******  **  PROGRAM STARTED AT               2022-05-26 22:06:02.666
 ***** ** ***  *** **   PROGRAM STARTED ON                               tcopt11
 **    ****   ******    PROGRAM STARTED BY                               wilhelm
 ***** **    ** ** **   PROGRAM PROCESS ID                                 93230
  **** **  *******  **  PROGRAM STARTED IN /data/wilhelm/55_check_HFX/7_HFX_MoS2
                                           _PERIODIC_XY_FIXED_CODE/02_height_06A
                                           _E_

 CP2K| version string:                   CP2K version 10.0 (Development Version)
 CP2K| source code revision number:                                  git:3d29584
 CP2K| cp2kflags: omp libint fftw3 libxc parallel mpi3 scalapack xsmm           
 CP2K| is freely available from                            https://www.cp2k.org/
 CP2K| Program compiled at                      Sun 22 May 2022 01:43:22 PM CEST
 CP2K| Program compiled on                                               tcopt11
 CP2K| Program compiled for                                                local
 CP2K| Data directory path                    /data/wilhelm/52_fix_HFX/cp2k/data
 CP2K| Input file name                                                    HF.inp

 GLOBAL| Force Environment number                                              1
 GLOBAL| Basis set file name                            ../../BASIS_Mo_S_minimal
 GLOBAL| Potential file name                                      GTH_POTENTIALS
 GLOBAL| MM Potential file name                                     MM_POTENTIAL
 GLOBAL| Coordinate file name                                      __STD_INPUT__
 GLOBAL| Method name                                                        CP2K
 GLOBAL| Project name                                                       MoS2
 GLOBAL| Run type                                                         ENERGY
 GLOBAL| FFT library                                                       FFTW3
 GLOBAL| Diagonalization library                                       ScaLAPACK
 GLOBAL| Orthonormality check for eigenvectors                          DISABLED
 GLOBAL| Matrix multiplication library                                 ScaLAPACK
 GLOBAL| All-to-all communication in single precision                          F
 GLOBAL| FFTs using library dependent lengths                                  F
 GLOBAL| Grid backend                                                       AUTO
 GLOBAL| Global print level                                               MEDIUM
 GLOBAL| MPI I/O enabled                                                       T
 GLOBAL| Total number of message passing processes                            36
 GLOBAL| Number of threads for this process                                    1
 GLOBAL| This output is from process                                           0
 GLOBAL| Stack size for threads created by OpenMP (OMP_STACKSIZE)        default
 GLOBAL| CPU model name                          AMD EPYC 7401 24-Core Processor
 GLOBAL| CPUID                                                              1002

 MEMORY| system memory details [Kb]
 MEMORY|                        rank 0           min           max       average
 MEMORY| MemTotal            263969112     263969112     263969112     263969112
 MEMORY| MemFree             209529824     209529824     209531000     209529856
 MEMORY| Buffers               1123680       1123680       1123680       1123680
 MEMORY| Cached               45691764      45691764      45693076      45691800
 MEMORY| Slab                  2852776       2852616       2852776       2852771
 MEMORY| SReclaimable          2288516       2288516       2288516       2288516
 MEMORY| MemLikelyFree       258633784     258633784     258636272     258633853


 *** Fundamental physical constants (SI units) ***

 *** Literature: B. J. Mohr and B. N. Taylor,
 ***             CODATA recommended values of the fundamental physical
 ***             constants: 2006, Web Version 5.1
 ***             http://physics.nist.gov/constants

 Speed of light in vacuum [m/s]                             2.99792458000000E+08
 Magnetic constant or permeability of vacuum [N/A**2]       1.25663706143592E-06
 Electric constant or permittivity of vacuum [F/m]          8.85418781762039E-12
 Planck constant (h) [J*s]                                  6.62606896000000E-34
 Planck constant (h-bar) [J*s]                              1.05457162825177E-34
 Elementary charge [C]                                      1.60217648700000E-19
 Electron mass [kg]                                         9.10938215000000E-31
 Electron g factor [ ]                                     -2.00231930436220E+00
 Proton mass [kg]                                           1.67262163700000E-27
 Fine-structure constant                                    7.29735253760000E-03
 Rydberg constant [1/m]                                     1.09737315685270E+07
 Avogadro constant [1/mol]                                  6.02214179000000E+23
 Boltzmann constant [J/K]                                   1.38065040000000E-23
 Atomic mass unit [kg]                                      1.66053878200000E-27
 Bohr radius [m]                                            5.29177208590000E-11

 *** Conversion factors ***

 [u] -> [a.u.]                                              1.82288848426455E+03
 [Angstrom] -> [Bohr] = [a.u.]                              1.88972613288564E+00
 [a.u.] = [Bohr] -> [Angstrom]                              5.29177208590000E-01
 [a.u.] -> [s]                                              2.41888432650478E-17
 [a.u.] -> [fs]                                             2.41888432650478E-02
 [a.u.] -> [J]                                              4.35974393937059E-18
 [a.u.] -> [N]                                              8.23872205491840E-08
 [a.u.] -> [K]                                              3.15774647902944E+05
 [a.u.] -> [kJ/mol]                                         2.62549961709828E+03
 [a.u.] -> [kcal/mol]                                       6.27509468713739E+02
 [a.u.] -> [Pa]                                             2.94210107994716E+13
 [a.u.] -> [bar]                                            2.94210107994716E+08
 [a.u.] -> [atm]                                            2.90362800883016E+08
 [a.u.] -> [eV]                                             2.72113838565563E+01
 [a.u.] -> [Hz]                                             6.57968392072181E+15
 [a.u.] -> [1/cm] (wave numbers)                            2.19474631370540E+05
 [a.u./Bohr**2] -> [1/cm]                                   5.14048714338585E+03
 

 CELL_TOP| Volume [angstrom^3]:                                      1856.117607
 CELL_TOP| Vector a [angstrom    18.900     0.000     0.000   |a| =    18.900000
 CELL_TOP| Vector b [angstrom    -9.450    16.368     0.000   |b| =    18.900000
 CELL_TOP| Vector c [angstrom     0.000     0.000     6.000   |c| =     6.000000
 CELL_TOP| Angle (b,c), alpha [degree]:                                90.000000
 CELL_TOP| Angle (a,c), beta  [degree]:                                90.000000
 CELL_TOP| Angle (a,b), gamma [degree]:                               120.000000
 CELL_TOP| Numerically orthorhombic:                                          NO

 CELL_UC| Volume [angstrom^3]:                                         51.558822
 CELL_UC| Vector a [angstrom]     3.150     0.000     0.000   |a| =     3.150000
 CELL_UC| Vector b [angstrom]    -1.575     2.728     0.000   |b| =     3.150000
 CELL_UC| Vector c [angstrom]     0.000     0.000     6.000   |c| =     6.000000
 CELL_UC| Angle (b,c), alpha [degree]:                                 90.000000
 CELL_UC| Angle (a,c), beta  [degree]:                                 90.000000
 CELL_UC| Angle (a,b), gamma [degree]:                                120.000000
 CELL_UC| Numerically orthorhombic:                                           NO

 GENERATE|  Preliminary Number of Bonds generated:                             0
 GENERATE|  Achieved consistency in connectivity generation.

 CELL| Volume [angstrom^3]:                                          1856.117607
 CELL| Vector a [angstrom]:      18.900     0.000     0.000   |a| =    18.900000
 CELL| Vector b [angstrom]:      -9.450    16.368     0.000   |b| =    18.900000
 CELL| Vector c [angstrom]:       0.000     0.000     6.000   |c| =     6.000000
 CELL| Angle (b,c), alpha [degree]:                                    90.000000
 CELL| Angle (a,c), beta  [degree]:                                    90.000000
 CELL| Angle (a,b), gamma [degree]:                                   120.000000
 CELL| Numerically orthorhombic:                                              NO

 CELL_REF| Volume [angstrom^3]:                                      1856.117607
 CELL_REF| Vector a [angstrom    18.900     0.000     0.000   |a| =    18.900000
 CELL_REF| Vector b [angstrom    -9.450    16.368     0.000   |b| =    18.900000
 CELL_REF| Vector c [angstrom     0.000     0.000     6.000   |c| =     6.000000
 CELL_REF| Angle (b,c), alpha [degree]:                                90.000000
 CELL_REF| Angle (a,c), beta  [degree]:                                90.000000
 CELL_REF| Angle (a,b), gamma [degree]:                               120.000000
 CELL_REF| Numerically orthorhombic:                                          NO

 *******************************************************************************
 *******************************************************************************
 **                                                                           **
 **     #####                         ##              ##                      **
 **    ##   ##            ##          ##              ##                      **
 **   ##     ##                       ##            ######                    **
 **   ##     ##  ##   ##  ##   #####  ##  ##   ####   ##    #####    #####    **
 **   ##     ##  ##   ##  ##  ##      ## ##   ##      ##   ##   ##  ##   ##   **
 **   ##  ## ##  ##   ##  ##  ##      ####     ###    ##   ######   ######    **
 **    ##  ###   ##   ##  ##  ##      ## ##      ##   ##   ##       ##        **
 **     #######   #####   ##   #####  ##  ##  ####    ##    #####   ##        **
 **           ##                                                    ##        **
 **                                                                           **
 **                                                ... make the atoms dance   **
 **                                                                           **
 **            Copyright (C) by CP2K developers group (2000-2022)             **
 **                      J. Chem. Phys. 152, 194103 (2020)                    **
 **                                                                           **
 *******************************************************************************

 DFT| Spin restricted Kohn-Sham (RKS) calculation                            RKS
 DFT| Multiplicity                                                             1
 DFT| Number of spin states                                                    1
 DFT| Charge                                                                   0
 DFT| Self-interaction correction (SIC)                                       NO
 DFT| Cutoffs: density                                              1.000000E-10
 DFT|          gradient                                             1.000000E-10
 DFT|          tau                                                  1.000000E-10
 DFT|          cutoff_smoothing_range                               0.000000E+00
 DFT| XC density smoothing                                                  NONE
 DFT| XC derivatives                                                          PW
 FUNCTIONAL| NO EXCHANGE-CORRELATION FUNCTIONAL USED.

 QS| Method:                                                                 GPW
 QS| Density plane wave grid type                        NON-SPHERICAL FULLSPACE
 QS| Number of grid levels:                                                    4
 QS| Density cutoff [a.u.]:                                                150.0
 QS| Multi grid cutoff [a.u.]: 1) grid level                               150.0
 QS|                           2) grid level                                50.0
 QS|                           3) grid level                                16.7
 QS|                           4) grid level                                 5.6
 QS| Grid level progression factor:                                          3.0
 QS| Relative density cutoff [a.u.]:                                        20.0
 QS| Interaction thresholds: eps_pgf_orb:                                1.0E-20
 QS|                         eps_filter_matrix:                          0.0E+00
 QS|                         eps_core_charge:                            1.0E-22
 QS|                         eps_rho_gspace:                             1.0E-20
 QS|                         eps_rho_rspace:                             1.0E-20
 QS|                         eps_gvg_rspace:                             1.0E-10
 QS|                         eps_ppl:                                    1.0E-02
 QS|                         eps_ppnl:                                   1.0E-12


 ATOMIC KIND INFORMATION

  1. Atomic kind: Mo                                    Number of atoms:      36

     Orbital Basis Set                                                   minimal

       Number of orbital shell sets:                                           3
       Number of orbital shells:                                               3
       Number of primitive Cartesian functions:                                3
       Number of Cartesian basis functions:                                    8
       Number of spherical basis functions:                                    7
       Norm type:                                                              2

       Normalised Cartesian orbitals:

                        Set   Shell   Orbital            Exponent    Coefficient

                          1       1    1s                0.400000       0.358472

                          2       1    1s                2.000000       1.198623

                          3       1    1dx2              1.000000       1.645923
                          3       1    1dxy              1.000000       2.850822
                          3       1    1dxz              1.000000       2.850822
                          3       1    1dy2              1.000000       1.645923
                          3       1    1dyz              1.000000       2.850822
                          3       1    1dz2              1.000000       1.645923

       Atomic covalent radius [Angstrom]:                                  1.300

       Atomic van der Waals radius [Angstrom]:                             1.670

     GTH Potential information for                                   GTH-PADE-q6

       Description:                       Goedecker-Teter-Hutter pseudopotential
                                           Goedecker et al., PRB 54, 1703 (1996)
                                          Hartwigsen et al., PRB 58, 3641 (1998)
                                                      Krack, TCA 114, 145 (2005)

       Gaussian exponent of the core charge distribution:               1.023330
       Electronic configuration (s p d ...):                           1   0   5

       Parameters of the local part of the GTH pseudopotential:

                          rloc        C1          C2          C3          C4
                        0.699000    7.995868

       Parameters of the non-local part of the GTH pseudopotential:

                   l      r(l)      h(i,j,l)

                   0    0.678126    1.289607   -0.386568
                                   -0.386568    0.998113
                   1    0.800771    0.301412   -0.313389
                                   -0.313389    0.741615
                   2    0.453384   -2.809708    3.007755
                                    3.007755   -6.820946

  2. Atomic kind: S                                     Number of atoms:      72

     Orbital Basis Set                                                   minimal

       Number of orbital shell sets:                                           4
       Number of orbital shells:                                               4
       Number of primitive Cartesian functions:                                4
       Number of Cartesian basis functions:                                    8
       Number of spherical basis functions:                                    8
       Norm type:                                                              2

       Normalised Cartesian orbitals:

                        Set   Shell   Orbital            Exponent    Coefficient

                          1       1    1s                0.400000       0.358472

                          2       1    1s                2.000000       1.198623

                          3       1    1px               0.300000       0.316477
                          3       1    1py               0.300000       0.316477
                          3       1    1pz               0.300000       0.316477

                          4       1    1px               0.800000       1.078456
                          4       1    1py               0.800000       1.078456
                          4       1    1pz               0.800000       1.078456

       Atomic covalent radius [Angstrom]:                                  1.020

       Atomic van der Waals radius [Angstrom]:                             1.800

     GTH Potential information for                                   GTH-PADE-q6

       Description:                       Goedecker-Teter-Hutter pseudopotential
                                           Goedecker et al., PRB 54, 1703 (1996)
                                          Hartwigsen et al., PRB 58, 3641 (1998)
                                                      Krack, TCA 114, 145 (2005)

       Gaussian exponent of the core charge distribution:               2.834467
       Electronic configuration (s p d ...):                               2   4

       Parameters of the local part of the GTH pseudopotential:

                          rloc        C1          C2          C3          C4
                        0.420000   -6.554492

       Parameters of the non-local part of the GTH pseudopotential:

                   l      r(l)      h(i,j,l)

                   0    0.361757    7.905303   -1.731881
                                   -1.731881    4.471698
                   1    0.405285    3.866579


 MOLECULE KIND INFORMATION


 All atoms are their own molecule, skipping detailed information


 TOTAL NUMBERS AND MAXIMUM NUMBERS

  Total number of            - Atomic kinds:                                   2
                             - Atoms:                                        108
                             - Shell sets:                                   396
                             - Shells:                                       396
                             - Primitive Cartesian functions:                396
                             - Cartesian basis functions:                    864
                             - Spherical basis functions:                    828

  Maximum angular momentum of- Orbital basis functions:                        2
                             - Local part of the GTH pseudopotential:          0
                             - Non-local part of the GTH pseudopotential:      4


 MODULE QUICKSTEP:  ATOMIC COORDINATES IN angstrom

 Atom  Kind  Element       X           Y           Z          Z(eff)       Mass
    1   1 Mo  42       0.000000    1.818650    3.075000       6.0000     95.9600
    2   2 S   16       0.000000    3.637310    1.488300       6.0000     32.0650
    3   2 S   16       0.000000    3.637310    4.661700       6.0000     32.0650
    4   1 Mo  42       3.150000    1.818650    3.075000       6.0000     95.9600
    5   2 S   16       3.150000    3.637310    1.488300       6.0000     32.0650
    6   2 S   16       3.150000    3.637310    4.661700       6.0000     32.0650
    7   1 Mo  42       6.300000    1.818650    3.075000       6.0000     95.9600
    8   2 S   16       6.300000    3.637310    1.488300       6.0000     32.0650
    9   2 S   16       6.300000    3.637310    4.661700       6.0000     32.0650
   10   1 Mo  42       9.450000    1.818650    3.075000       6.0000     95.9600
   11   2 S   16       9.450000    3.637310    1.488300       6.0000     32.0650
   12   2 S   16       9.450000    3.637310    4.661700       6.0000     32.0650
   13   1 Mo  42      12.600000    1.818650    3.075000       6.0000     95.9600
   14   2 S   16      12.600000    3.637310    1.488300       6.0000     32.0650
   15   2 S   16      12.600000    3.637310    4.661700       6.0000     32.0650
   16   1 Mo  42      15.750000    1.818650    3.075000       6.0000     95.9600
   17   2 S   16      15.750000    3.637310    1.488300       6.0000     32.0650
   18   2 S   16      15.750000    3.637310    4.661700       6.0000     32.0650
   19   1 Mo  42      -1.575000    4.546630    3.075000       6.0000     95.9600
   20   2 S   16      -1.575000    6.365290    1.488300       6.0000     32.0650
   21   2 S   16      -1.575000    6.365290    4.661700       6.0000     32.0650
   22   1 Mo  42       1.575000    4.546630    3.075000       6.0000     95.9600
   23   2 S   16       1.575000    6.365290    1.488300       6.0000     32.0650
   24   2 S   16       1.575000    6.365290    4.661700       6.0000     32.0650
   25   1 Mo  42       4.725000    4.546630    3.075000       6.0000     95.9600
   26   2 S   16       4.725000    6.365290    1.488300       6.0000     32.0650
   27   2 S   16       4.725000    6.365290    4.661700       6.0000     32.0650
   28   1 Mo  42       7.875000    4.546630    3.075000       6.0000     95.9600
   29   2 S   16       7.875000    6.365290    1.488300       6.0000     32.0650
   30   2 S   16       7.875000    6.365290    4.661700       6.0000     32.0650
   31   1 Mo  42      11.025000    4.546630    3.075000       6.0000     95.9600
   32   2 S   16      11.025000    6.365290    1.488300       6.0000     32.0650
   33   2 S   16      11.025000    6.365290    4.661700       6.0000     32.0650
   34   1 Mo  42      14.175000    4.546630    3.075000       6.0000     95.9600
   35   2 S   16      14.175000    6.365290    1.488300       6.0000     32.0650
   36   2 S   16      14.175000    6.365290    4.661700       6.0000     32.0650
   37   1 Mo  42      -3.150000    7.274610    3.075000       6.0000     95.9600
   38   2 S   16      -3.150000    9.093270    1.488300       6.0000     32.0650
   39   2 S   16      -3.150000    9.093270    4.661700       6.0000     32.0650
   40   1 Mo  42       0.000000    7.274610    3.075000       6.0000     95.9600
   41   2 S   16       0.000000    9.093270    1.488300       6.0000     32.0650
   42   2 S   16       0.000000    9.093270    4.661700       6.0000     32.0650
   43   1 Mo  42       3.150000    7.274610    3.075000       6.0000     95.9600
   44   2 S   16       3.150000    9.093270    1.488300       6.0000     32.0650
   45   2 S   16       3.150000    9.093270    4.661700       6.0000     32.0650
   46   1 Mo  42       6.300000    7.274610    3.075000       6.0000     95.9600
   47   2 S   16       6.300000    9.093270    1.488300       6.0000     32.0650
   48   2 S   16       6.300000    9.093270    4.661700       6.0000     32.0650
   49   1 Mo  42       9.450000    7.274610    3.075000       6.0000     95.9600
   50   2 S   16       9.450000    9.093270    1.488300       6.0000     32.0650
   51   2 S   16       9.450000    9.093270    4.661700       6.0000     32.0650
   52   1 Mo  42      12.600000    7.274610    3.075000       6.0000     95.9600
   53   2 S   16      12.600000    9.093270    1.488300       6.0000     32.0650
   54   2 S   16      12.600000    9.093270    4.661700       6.0000     32.0650
   55   1 Mo  42      -4.725000   10.002590    3.075000       6.0000     95.9600
   56   2 S   16      -4.725000   11.821250    1.488300       6.0000     32.0650
   57   2 S   16      -4.725000   11.821250    4.661700       6.0000     32.0650
   58   1 Mo  42      -1.575000   10.002590    3.075000       6.0000     95.9600
   59   2 S   16      -1.575000   11.821250    1.488300       6.0000     32.0650
   60   2 S   16      -1.575000   11.821250    4.661700       6.0000     32.0650
   61   1 Mo  42       1.575000   10.002590    3.075000       6.0000     95.9600
   62   2 S   16       1.575000   11.821250    1.488300       6.0000     32.0650
   63   2 S   16       1.575000   11.821250    4.661700       6.0000     32.0650
   64   1 Mo  42       4.725000   10.002590    3.075000       6.0000     95.9600
   65   2 S   16       4.725000   11.821250    1.488300       6.0000     32.0650
   66   2 S   16       4.725000   11.821250    4.661700       6.0000     32.0650
   67   1 Mo  42       7.875000   10.002590    3.075000       6.0000     95.9600
   68   2 S   16       7.875000   11.821250    1.488300       6.0000     32.0650
   69   2 S   16       7.875000   11.821250    4.661700       6.0000     32.0650
   70   1 Mo  42      11.025000   10.002590    3.075000       6.0000     95.9600
   71   2 S   16      11.025000   11.821250    1.488300       6.0000     32.0650
   72   2 S   16      11.025000   11.821250    4.661700       6.0000     32.0650
   73   1 Mo  42      -6.300000   12.730570    3.075000       6.0000     95.9600
   74   2 S   16      -6.300000   14.549230    1.488300       6.0000     32.0650
   75   2 S   16      -6.300000   14.549230    4.661700       6.0000     32.0650
   76   1 Mo  42      -3.150000   12.730570    3.075000       6.0000     95.9600
   77   2 S   16      -3.150000   14.549230    1.488300       6.0000     32.0650
   78   2 S   16      -3.150000   14.549230    4.661700       6.0000     32.0650
   79   1 Mo  42       0.000000   12.730570    3.075000       6.0000     95.9600
   80   2 S   16       0.000000   14.549230    1.488300       6.0000     32.0650
   81   2 S   16       0.000000   14.549230    4.661700       6.0000     32.0650
   82   1 Mo  42       3.150000   12.730570    3.075000       6.0000     95.9600
   83   2 S   16       3.150000   14.549230    1.488300       6.0000     32.0650
   84   2 S   16       3.150000   14.549230    4.661700       6.0000     32.0650
   85   1 Mo  42       6.300000   12.730570    3.075000       6.0000     95.9600
   86   2 S   16       6.300000   14.549230    1.488300       6.0000     32.0650
   87   2 S   16       6.300000   14.549230    4.661700       6.0000     32.0650
   88   1 Mo  42       9.450000   12.730570    3.075000       6.0000     95.9600
   89   2 S   16       9.450000   14.549230    1.488300       6.0000     32.0650
   90   2 S   16       9.450000   14.549230    4.661700       6.0000     32.0650
   91   1 Mo  42      -7.875000   15.458550    3.075000       6.0000     95.9600
   92   2 S   16      -7.875000   17.277210    1.488300       6.0000     32.0650
   93   2 S   16      -7.875000   17.277210    4.661700       6.0000     32.0650
   94   1 Mo  42      -4.725000   15.458550    3.075000       6.0000     95.9600
   95   2 S   16      -4.725000   17.277210    1.488300       6.0000     32.0650
   96   2 S   16      -4.725000   17.277210    4.661700       6.0000     32.0650
   97   1 Mo  42      -1.575000   15.458550    3.075000       6.0000     95.9600
   98   2 S   16      -1.575000   17.277210    1.488300       6.0000     32.0650
   99   2 S   16      -1.575000   17.277210    4.661700       6.0000     32.0650
  100   1 Mo  42       1.575000   15.458550    3.075000       6.0000     95.9600
  101   2 S   16       1.575000   17.277210    1.488300       6.0000     32.0650
  102   2 S   16       1.575000   17.277210    4.661700       6.0000     32.0650
  103   1 Mo  42       4.725000   15.458550    3.075000       6.0000     95.9600
  104   2 S   16       4.725000   17.277210    1.488300       6.0000     32.0650
  105   2 S   16       4.725000   17.277210    4.661700       6.0000     32.0650
  106   1 Mo  42       7.875000   15.458550    3.075000       6.0000     95.9600
  107   2 S   16       7.875000   17.277210    1.488300       6.0000     32.0650
  108   2 S   16       7.875000   17.277210    4.661700       6.0000     32.0650




 SCF PARAMETERS         Density guess:                                   RESTART
                        --------------------------------------------------------
                        max_scf:                                              40
                        max_scf_history:                                       0
                        max_diis:                                              4
                        --------------------------------------------------------
                        eps_scf:                                        1.00E-05
                        eps_scf_history:                                0.00E+00
                        eps_diis:                                       1.00E-01
                        eps_eigval:                                     1.00E-05
                        --------------------------------------------------------
                        level_shift [a.u.]:                             0.000000
                        --------------------------------------------------------
                        Outer loop SCF in use 
                        No variables optimised in outer loop
                        eps_scf                                         1.00E-05
                        max_scf                                               50
                        No outer loop optimization
                        step_size                                       5.00E-01

 PW_GRID| Information for grid number                                          1
 PW_GRID| Grid distributed over                                    36 processors
 PW_GRID| Real space group dimensions                                    36    1
 PW_GRID| the grid is blocked:                                                NO
 PW_GRID| Cutoff [a.u.]                                                    150.0
 PW_GRID| spherical cutoff:                                                   NO
 PW_GRID|   Bounds   1           -100      99                Points:         200
 PW_GRID|   Bounds   2           -100      99                Points:         200
 PW_GRID|   Bounds   3            -32      31                Points:          64
 PW_GRID| Volume element (a.u.^3)  0.4893E-02     Volume (a.u.^3)     12525.7026
 PW_GRID| Grid span                                                    FULLSPACE
 PW_GRID|   Distribution                         Average         Max         Min
 PW_GRID|   G-Vectors                            71111.1       71200       71000
 PW_GRID|   G-Rays                                 355.6         356         355
 PW_GRID|   Real Space Points                    71111.1       76800       64000

 PW_GRID| Information for grid number                                          2
 PW_GRID| Number of the reference grid                                         1
 PW_GRID| Grid distributed over                                    36 processors
 PW_GRID| Real space group dimensions                                    36    1
 PW_GRID| the grid is blocked:                                                NO
 PW_GRID| Cutoff [a.u.]                                                     50.0
 PW_GRID| spherical cutoff:                                                   NO
 PW_GRID|   Bounds   1            -60      59                Points:         120
 PW_GRID|   Bounds   2            -60      59                Points:         120
 PW_GRID|   Bounds   3            -20      19                Points:          40
 PW_GRID| Volume element (a.u.^3)  0.2175E-01     Volume (a.u.^3)     12525.7026
 PW_GRID| Grid span                                                    FULLSPACE
 PW_GRID|   Distribution                         Average         Max         Min
 PW_GRID|   G-Vectors                            16000.0       16560       15360
 PW_GRID|   G-Rays                                 133.3         138         128
 PW_GRID|   Real Space Points                    16000.0       19200       14400

 PW_GRID| Information for grid number                                          3
 PW_GRID| Number of the reference grid                                         1
 PW_GRID| Grid distributed over                                    36 processors
 PW_GRID| Real space group dimensions                                    36    1
 PW_GRID| the grid is blocked:                                                NO
 PW_GRID| Cutoff [a.u.]                                                     16.7
 PW_GRID| spherical cutoff:                                                   NO
 PW_GRID|   Bounds   1            -36      35                Points:          72
 PW_GRID|   Bounds   2            -36      35                Points:          72
 PW_GRID|   Bounds   3            -12      11                Points:          24
 PW_GRID| Volume element (a.u.^3)  0.1007         Volume (a.u.^3)     12525.7026
 PW_GRID| Grid span                                                    FULLSPACE
 PW_GRID|   Distribution                         Average         Max         Min
 PW_GRID|   G-Vectors                             3456.0        3816        3096
 PW_GRID|   G-Rays                                  48.0          53          43
 PW_GRID|   Real Space Points                     3456.0        3456        3456

 PW_GRID| Information for grid number                                          4
 PW_GRID| Number of the reference grid                                         1
 PW_GRID| Grid distributed over                                    36 processors
 PW_GRID| Real space group dimensions                                    36    1
 PW_GRID| the grid is blocked:                                                NO
 PW_GRID| Cutoff [a.u.]                                                      5.6
 PW_GRID| spherical cutoff:                                                   NO
 PW_GRID|   Bounds   1            -20      19                Points:          40
 PW_GRID|   Bounds   2            -20      19                Points:          40
 PW_GRID|   Bounds   3             -7       7                Points:          15
 PW_GRID| Volume element (a.u.^3)  0.5219         Volume (a.u.^3)     12525.7026
 PW_GRID| Grid span                                                    FULLSPACE
 PW_GRID|   Distribution                         Average         Max         Min
 PW_GRID|   G-Vectors                              666.7         720         600
 PW_GRID|   G-Rays                                  16.7          18          15
 PW_GRID|   Real Space Points                      666.7        1200         600

 POISSON| Solver                                                        PERIODIC
 POISSON| Periodicity                                                        XYZ

 RS_GRID| Information for grid number                                          1
 RS_GRID|   Bounds   1           -100      99                Points:         200
 RS_GRID|   Bounds   2           -100      99                Points:         200
 RS_GRID|   Bounds   3            -32      31                Points:          64
 RS_GRID| Real space fully replicated
 RS_GRID| Group size                                                           1

 RS_GRID| Information for grid number                                          2
 RS_GRID|   Bounds   1            -60      59                Points:         120
 RS_GRID|   Bounds   2            -60      59                Points:         120
 RS_GRID|   Bounds   3            -20      19                Points:          40
 RS_GRID| Real space fully replicated
 RS_GRID| Group size                                                           1

 RS_GRID| Information for grid number                                          3
 RS_GRID|   Bounds   1            -36      35                Points:          72
 RS_GRID|   Bounds   2            -36      35                Points:          72
 RS_GRID|   Bounds   3            -12      11                Points:          24
 RS_GRID| Real space fully replicated
 RS_GRID| Group size                                                           1

 RS_GRID| Information for grid number                                          4
 RS_GRID|   Bounds   1            -20      19                Points:          40
 RS_GRID|   Bounds   2            -20      19                Points:          40
 RS_GRID|   Bounds   3             -7       7                Points:          15
 RS_GRID| Real space fully replicated
 RS_GRID| Group size                                                           1

 *** WARNING in hfx_types.F:1969 :: Periodic Hartree Fock calculation      ***
 *** requested with use of a truncated or shortrange potential. The cutoff ***
 *** radius is larger than half the minimal cell dimension. This may lead  ***
 *** to unphysical total energies. Reduce the cutoff radius in order to    ***
 *** avoid possible problems.                                              ***


  HFX_INFO| Replica ID:                                                        1
  HFX_INFO| FRACTION:                                               1.0000000000
  HFX_INFO| Interaction Potential:                                     TRUNCATED
  HFX_INFO| Cutoff Radius [angstrom]:                               9.0000000000
  HFX_INFO| EPS_SCHWARZ:                                                 1.0E-06
  HFX_INFO| EPS_SCHWARZ_FORCES                                           1.0E-06
  HFX_INFO| EPS_STORAGE_SCALING:                                         1.0E-01
  HFX_INFO| NBINS:                                                            64
  HFX_INFO| BLOCK_SIZE:                                                        2
  HFX_INFO| NUMBER_OF_SHELLS:                                               AUTO
  HFX_INFO| Number of periodic shells considered:                             -1
  HFX_INFO| Number of periodic cells considered:                               7


 Number of electrons:                                                        648
 Number of occupied orbitals:                                                324
 Number of molecular orbitals:                                               324

 Number of orbital functions:                                                828
 Number of independent orbital functions:                                    828

 Extrapolation method: initial_guess


 SCF WAVEFUNCTION OPTIMIZATION

  ----------------------------------- OT ---------------------------------------
  Minimizer      : CG                  : conjugate gradient
  Preconditioner : FULL_SINGLE_INVERSE : inversion of 
                                         H + eS - 2*(Sc)(c^T*H*c+const)(Sc)^T
  Precond_solver : DEFAULT
  Line search    : 2PNT                : 2 energies, one gradient
  stepsize       :    0.08000000                  energy_gap     :    0.08000000
  eps_taylor     :   0.10000E-15                  max_taylor     :             4
  ----------------------------------- OT ---------------------------------------

  Step     Update method      Time    Convergence         Total energy    Change
  ------------------------------------------------------------------------------

  HFX_MEM_INFO| Est. max. program size before HFX [MiB]:                     200
  HFX_MEM_INFO| Number of cart. primitive ERI's calculated:            495298266
  HFX_MEM_INFO| Number of sph. ERI's calculated:                       295163438
  HFX_MEM_INFO| Number of sph. ERI's stored in-core:                   101869099
  HFX_MEM_INFO| Number of sph. ERI's stored on disk:                           0
  HFX_MEM_INFO| Number of sph. ERI's calculated on the fly:                    0
  HFX_MEM_INFO| Total memory consumption ERI's RAM [MiB]:                    106
  HFX_MEM_INFO| Whereof max-vals [MiB]:                                        7
  HFX_MEM_INFO| Total compression factor ERI's RAM:                         7.36
  HFX_MEM_INFO| Total memory consumption ERI's disk [MiB]:                     0
  HFX_MEM_INFO| Total compression factor ERI's disk:                        0.00
  HFX_MEM_INFO| Size of density/Fock matrix [MiB]:                             4
  HFX_MEM_INFO| Size of buffers [MiB]:                                         1
  HFX_MEM_INFO| Number of periodic image cells considered:                     7
  HFX_MEM_INFO| Est. max. program size after HFX  [MiB]:                     216

     1 OT CG       0.80E-01    1.7     0.00353373      -894.8444868467 -8.95E+02
     2 OT LS       0.31E+00    0.4                     -895.0777764121
     3 OT CG       0.31E+00    0.6     0.00064257      -895.3622214041 -5.18E-01
     4 OT LS       0.35E+00    0.4                     -895.3812057859
     5 OT CG       0.35E+00    0.6     0.00030579      -895.3814046336 -1.92E-02
     6 OT LS       0.30E+00    0.4                     -895.3850186066
     7 OT CG       0.30E+00    0.6     0.00005210      -895.3851124327 -3.71E-03
     8 OT LS       0.29E+00    0.4                     -895.3852162780
     9 OT CG       0.29E+00    0.6     0.00001459      -895.3852164825 -1.04E-04
    10 OT LS       0.36E+00    0.4                     -895.3852263501
    11 OT CG       0.36E+00    0.6     0.00000499      -895.3852268055 -1.03E-05

  *** SCF run converged in    11 steps ***


  Electronic density on regular grids:       -648.0000000000       -0.0000000000
  Core density on regular grids:              648.0000000000        0.0000000000
  Total charge density on r-space grids:       -0.0000000000
  Total charge density g-space grids:          -0.0000000000

  Overlap energy of the core charge distribution:               0.00003919135878
  Self energy of the core charge distribution:              -2263.95339448397044
  Core Hamiltonian energy:                                    765.96226422121504
  Hartree energy:                                             836.45095844923821
  Exchange-correlation energy:                                  0.00000000000000
  Hartree-Fock Exchange energy:                              -233.84509418330725

  Total energy:                                              -895.38522680546589

  outer SCF iter =    1 RMS gradient =   0.50E-05 energy =       -895.3852268055
  outer SCF loop converged in   1 iterations or   11 steps


 !-----------------------------------------------------------------------------!
                     Mulliken Population Analysis

 #  Atom  Element  Kind  Atomic population                           Net charge
       1     Mo       1          2.712217                              3.287783
       2     S        2          7.639348                             -1.639348
       3     S        2          7.639350                             -1.639350
       4     Mo       1          2.713025                              3.286975
       5     S        2          7.649488                             -1.649488
       6     S        2          7.649487                             -1.649487
       7     Mo       1          2.712133                              3.287867
       8     S        2          7.636441                             -1.636441
       9     S        2          7.636441                             -1.636441
      10     Mo       1          2.713033                              3.286967
      11     S        2          7.643314                             -1.643314
      12     S        2          7.643313                             -1.643313
      13     Mo       1          2.712754                              3.287246
      14     S        2          7.646754                             -1.646754
      15     S        2          7.646753                             -1.646753
      16     Mo       1          2.712895                              3.287105
      17     S        2          7.652618                             -1.652618
      18     S        2          7.652614                             -1.652614
      19     Mo       1          2.713509                              3.286491
      20     S        2          7.651624                             -1.651624
      21     S        2          7.651624                             -1.651624
      22     Mo       1          2.712906                              3.287094
      23     S        2          7.642093                             -1.642093
      24     S        2          7.642094                             -1.642094
      25     Mo       1          2.712850                              3.287150
      26     S        2          7.644154                             -1.644154
      27     S        2          7.644154                             -1.644154
      28     Mo       1          2.712651                              3.287349
      29     S        2          7.641352                             -1.641352
      30     S        2          7.641351                             -1.641351
      31     Mo       1          2.713221                              3.286779
      32     S        2          7.640564                             -1.640564
      33     S        2          7.640565                             -1.640565
      34     Mo       1          2.713470                              3.286530
      35     S        2          7.641149                             -1.641149
      36     S        2          7.641152                             -1.641152
      37     Mo       1          2.712351                              3.287649
      38     S        2          7.637132                             -1.637132
      39     S        2          7.637131                             -1.637131
      40     Mo       1          2.713521                              3.286479
      41     S        2          7.641975                             -1.641975
      42     S        2          7.641975                             -1.641975
      43     Mo       1          2.712993                              3.287007
      44     S        2          7.645543                             -1.645543
      45     S        2          7.645542                             -1.645542
      46     Mo       1          2.712761                              3.287239
      47     S        2          7.642244                             -1.642244
      48     S        2          7.642245                             -1.642245
      49     Mo       1          2.712909                              3.287091
      50     S        2          7.648377                             -1.648377
      51     S        2          7.648377                             -1.648377
      52     Mo       1          2.712016                              3.287984
      53     S        2          7.638508                             -1.638508
      54     S        2          7.638509                             -1.638509
      55     Mo       1          2.712765                              3.287235
      56     S        2          7.645399                             -1.645399
      57     S        2          7.645402                             -1.645402
      58     Mo       1          2.712284                              3.287716
      59     S        2          7.649214                             -1.649214
      60     S        2          7.649215                             -1.649215
      61     Mo       1          2.712803                              3.287197
      62     S        2          7.644557                             -1.644557
      63     S        2          7.644557                             -1.644557
      64     Mo       1          2.713208                              3.286792
      65     S        2          7.647151                             -1.647151
      66     S        2          7.647150                             -1.647150
      67     Mo       1          2.712934                              3.287066
      68     S        2          7.640221                             -1.640221
      69     S        2          7.640221                             -1.640221
      70     Mo       1          2.712849                              3.287151
      71     S        2          7.641218                             -1.641218
      72     S        2          7.641218                             -1.641218
      73     Mo       1          2.713711                              3.286289
      74     S        2          7.650166                             -1.650166
      75     S        2          7.650166                             -1.650166
      76     Mo       1          2.712828                              3.287172
      77     S        2          7.642088                             -1.642088
      78     S        2          7.642089                             -1.642089
      79     Mo       1          2.713689                              3.286311
      80     S        2          7.646766                             -1.646766
      81     S        2          7.646767                             -1.646767
      82     Mo       1          2.712863                              3.287137
      83     S        2          7.637210                             -1.637210
      84     S        2          7.637209                             -1.637209
      85     Mo       1          2.713299                              3.286701
      86     S        2          7.644002                             -1.644002
      87     S        2          7.644002                             -1.644002
      88     Mo       1          2.712111                              3.287889
      89     S        2          7.641597                             -1.641597
      90     S        2          7.641596                             -1.641596
      91     Mo       1          2.713357                              3.286643
      92     S        2          7.645927                             -1.645927
      93     S        2          7.645926                             -1.645926
      94     Mo       1          2.712934                              3.287066
      95     S        2          7.641065                             -1.641065
      96     S        2          7.641066                             -1.641066
      97     Mo       1          2.712688                              3.287312
      98     S        2          7.642281                             -1.642281
      99     S        2          7.642280                             -1.642280
     100     Mo       1          2.713194                              3.286806
     101     S        2          7.647933                             -1.647933
     102     S        2          7.647933                             -1.647933
     103     Mo       1          2.712303                              3.287697
     104     S        2          7.637898                             -1.637898
     105     S        2          7.637898                             -1.637898
     106     Mo       1          2.712848                              3.287152
     107     S        2          7.640688                             -1.640688
     108     S        2          7.640688                             -1.640688
 # Total charge                            648.000000                 -0.000000

 !-----------------------------------------------------------------------------!

 !-----------------------------------------------------------------------------!
                           Hirshfeld Charges

  #Atom  Element  Kind  Ref Charge     Population                    Net charge
      1       Mo     1       6.000          4.453                         1.547
      2       S      2       6.000          6.769                        -0.769
      3       S      2       6.000          6.769                        -0.769
      4       Mo     1       6.000          4.454                         1.546
      5       S      2       6.000          6.779                        -0.779
      6       S      2       6.000          6.779                        -0.779
      7       Mo     1       6.000          4.453                         1.547
      8       S      2       6.000          6.766                        -0.766
      9       S      2       6.000          6.766                        -0.766
     10       Mo     1       6.000          4.454                         1.546
     11       S      2       6.000          6.773                        -0.773
     12       S      2       6.000          6.773                        -0.773
     13       Mo     1       6.000          4.453                         1.547
     14       S      2       6.000          6.777                        -0.777
     15       S      2       6.000          6.777                        -0.777
     16       Mo     1       6.000          4.453                         1.547
     17       S      2       6.000          6.783                        -0.783
     18       S      2       6.000          6.783                        -0.783
     19       Mo     1       6.000          4.454                         1.546
     20       S      2       6.000          6.782                        -0.782
     21       S      2       6.000          6.782                        -0.782
     22       Mo     1       6.000          4.454                         1.546
     23       S      2       6.000          6.772                        -0.772
     24       S      2       6.000          6.772                        -0.772
     25       Mo     1       6.000          4.454                         1.546
     26       S      2       6.000          6.774                        -0.774
     27       S      2       6.000          6.774                        -0.774
     28       Mo     1       6.000          4.453                         1.547
     29       S      2       6.000          6.771                        -0.771
     30       S      2       6.000          6.771                        -0.771
     31       Mo     1       6.000          4.454                         1.546
     32       S      2       6.000          6.770                        -0.770
     33       S      2       6.000          6.770                        -0.770
     34       Mo     1       6.000          4.455                         1.545
     35       S      2       6.000          6.771                        -0.771
     36       S      2       6.000          6.771                        -0.771
     37       Mo     1       6.000          4.453                         1.547
     38       S      2       6.000          6.766                        -0.766
     39       S      2       6.000          6.766                        -0.766
     40       Mo     1       6.000          4.454                         1.546
     41       S      2       6.000          6.772                        -0.772
     42       S      2       6.000          6.772                        -0.772
     43       Mo     1       6.000          4.454                         1.546
     44       S      2       6.000          6.775                        -0.775
     45       S      2       6.000          6.775                        -0.775
     46       Mo     1       6.000          4.453                         1.547
     47       S      2       6.000          6.772                        -0.772
     48       S      2       6.000          6.772                        -0.772
     49       Mo     1       6.000          4.453                         1.547
     50       S      2       6.000          6.778                        -0.778
     51       S      2       6.000          6.778                        -0.778
     52       Mo     1       6.000          4.452                         1.548
     53       S      2       6.000          6.768                        -0.768
     54       S      2       6.000          6.768                        -0.768
     55       Mo     1       6.000          4.453                         1.547
     56       S      2       6.000          6.775                        -0.775
     57       S      2       6.000          6.775                        -0.775
     58       Mo     1       6.000          4.453                         1.547
     59       S      2       6.000          6.779                        -0.779
     60       S      2       6.000          6.779                        -0.779
     61       Mo     1       6.000          4.454                         1.546
     62       S      2       6.000          6.774                        -0.774
     63       S      2       6.000          6.774                        -0.774
     64       Mo     1       6.000          4.454                         1.546
     65       S      2       6.000          6.777                        -0.777
     66       S      2       6.000          6.777                        -0.777
     67       Mo     1       6.000          4.453                         1.547
     68       S      2       6.000          6.770                        -0.770
     69       S      2       6.000          6.770                        -0.770
     70       Mo     1       6.000          4.453                         1.547
     71       S      2       6.000          6.771                        -0.771
     72       S      2       6.000          6.771                        -0.771
     73       Mo     1       6.000          4.454                         1.546
     74       S      2       6.000          6.780                        -0.780
     75       S      2       6.000          6.780                        -0.780
     76       Mo     1       6.000          4.454                         1.546
     77       S      2       6.000          6.772                        -0.772
     78       S      2       6.000          6.772                        -0.772
     79       Mo     1       6.000          4.455                         1.545
     80       S      2       6.000          6.777                        -0.777
     81       S      2       6.000          6.777                        -0.777
     82       Mo     1       6.000          4.454                         1.546
     83       S      2       6.000          6.766                        -0.766
     84       S      2       6.000          6.766                        -0.766
     85       Mo     1       6.000          4.454                         1.546
     86       S      2       6.000          6.774                        -0.774
     87       S      2       6.000          6.774                        -0.774
     88       Mo     1       6.000          4.452                         1.548
     89       S      2       6.000          6.771                        -0.771
     90       S      2       6.000          6.771                        -0.771
     91       Mo     1       6.000          4.454                         1.546
     92       S      2       6.000          6.776                        -0.776
     93       S      2       6.000          6.776                        -0.776
     94       Mo     1       6.000          4.454                         1.546
     95       S      2       6.000          6.771                        -0.771
     96       S      2       6.000          6.771                        -0.771
     97       Mo     1       6.000          4.453                         1.547
     98       S      2       6.000          6.772                        -0.772
     99       S      2       6.000          6.772                        -0.772
    100       Mo     1       6.000          4.454                         1.546
    101       S      2       6.000          6.778                        -0.778
    102       S      2       6.000          6.778                        -0.778
    103       Mo     1       6.000          4.453                         1.547
    104       S      2       6.000          6.767                        -0.767
    105       S      2       6.000          6.767                        -0.767
    106       Mo     1       6.000          4.453                         1.547
    107       S      2       6.000          6.770                        -0.770
    108       S      2       6.000          6.770                        -0.770

  Total Charge                                                           -0.000
 !-----------------------------------------------------------------------------!

 ENERGY| Total FORCE_EVAL ( QS ) energy [a.u.]:             -895.385226805465891

 -------------------------------------------------------------------------------
 -                                                                             -
 -                                DBCSR STATISTICS                             -
 -                                                                             -
 -------------------------------------------------------------------------------
 COUNTER                                    TOTAL       BLAS       SMM       ACC
 flops     7 x     4 x     4                16128       0.0%    100.0%      0.0%
 flops     4 x     4 x   138                26496       0.0%    100.0%      0.0%
 flops     8 x     4 x     4                36864       0.0%    100.0%      0.0%
 flops     7 x    32 x     4               645120       0.0%    100.0%      0.0%
 flops     7 x     4 x    32               645120       0.0%    100.0%      0.0%
 flops     4 x    32 x   138              1059840       0.0%    100.0%      0.0%
 flops    32 x     4 x   138              1059840       0.0%    100.0%      0.0%
 flops     8 x    32 x     4              1474560       0.0%    100.0%      0.0%
 flops     8 x     4 x    32              1474560       0.0%    100.0%      0.0%
 flops    32 x    32 x    32              6029312       0.0%    100.0%      0.0%
 flops    32 x    32 x    36              6782976       0.0%    100.0%      0.0%
 flops    32 x    36 x    32              6782976       0.0%    100.0%      0.0%
 flops    36 x    32 x    32              6782976       0.0%    100.0%      0.0%
 flops    32 x    36 x    36              7630848       0.0%    100.0%      0.0%
 flops    36 x    32 x    36              7630848       0.0%    100.0%      0.0%
 flops    36 x    36 x    32              7630848       0.0%    100.0%      0.0%
 flops    36 x    36 x    36              8584704       0.0%    100.0%      0.0%
 flops     7 x     4 x     7             10668672       0.0%    100.0%      0.0%
 flops     7 x     4 x     8             24385536       0.0%    100.0%      0.0%
 flops     8 x     4 x     7             24385536       0.0%    100.0%      0.0%
 flops     7 x     7 x    32             27151488       0.0%    100.0%      0.0%
 flops     7 x     7 x    36             30545424       0.0%    100.0%      0.0%
 flops    32 x    32 x    64             48234496       0.0%    100.0%      0.0%
 flops    32 x    64 x    32             48234496       0.0%    100.0%      0.0%
 flops    64 x    32 x    32             48234496       0.0%    100.0%      0.0%
 flops    32 x    36 x   138             53415936       0.0%    100.0%      0.0%
 flops    36 x    32 x   138             53415936       0.0%    100.0%      0.0%
 flops    32 x    36 x    64             54263808       0.0%    100.0%      0.0%
 flops    32 x    64 x    36             54263808       0.0%    100.0%      0.0%
 flops    36 x    32 x    64             54263808       0.0%    100.0%      0.0%
 flops    36 x    64 x    32             54263808       0.0%    100.0%      0.0%
 flops    64 x    32 x    36             54263808       0.0%    100.0%      0.0%
 flops    64 x    36 x    32             54263808       0.0%    100.0%      0.0%
 flops     8 x     4 x     8             55738368       0.0%    100.0%      0.0%
 flops     7 x    32 x    32             56770560       0.0%    100.0%      0.0%
 flops    36 x    36 x   138             60092928       0.0%    100.0%      0.0%
 flops     7 x     8 x    32             60383232       0.0%    100.0%      0.0%
 flops     8 x     7 x    32             60383232       0.0%    100.0%      0.0%
 flops    36 x    36 x    64             61046784       0.0%    100.0%      0.0%
 flops    36 x    64 x    36             61046784       0.0%    100.0%      0.0%
 flops    64 x    36 x    36             61046784       0.0%    100.0%      0.0%
 flops   138 x    32 x    32             64438272       0.0%    100.0%      0.0%
 flops     7 x     8 x    36             67931136       0.0%    100.0%      0.0%
 flops     8 x     7 x    36             67931136       0.0%    100.0%      0.0%
 flops   138 x    32 x    36             72493056       0.0%    100.0%      0.0%
 flops   138 x    36 x    32             72493056       0.0%    100.0%      0.0%
 flops   138 x    36 x    36             81554688       0.0%    100.0%      0.0%
 flops     8 x    32 x    32            129761280       0.0%    100.0%      0.0%
 flops     8 x     8 x    32            139935744       0.0%    100.0%      0.0%
 flops    32 x    32 x   138            140746752       0.0%    100.0%      0.0%
 flops     8 x     8 x    36            157427712       0.0%    100.0%      0.0%
 flops     7 x     7 x    64            217211904       0.0%    100.0%      0.0%
 flops   138 x    32 x   138            307141632       0.0%    100.0%      0.0%
 flops   138 x    36 x   138            345534336       0.0%    100.0%      0.0%
 flops    32 x    64 x   138            379846656       0.0%    100.0%      0.0%
 flops    64 x    32 x   138            379846656       0.0%    100.0%      0.0%
 flops    64 x    64 x    32            385875968       0.0%    100.0%      0.0%
 flops    32 x    64 x    64            385875968       0.0%    100.0%      0.0%
 flops    64 x    32 x    64            385875968       0.0%    100.0%      0.0%
 flops    36 x    64 x   138            427327488       0.0%    100.0%      0.0%
 flops    64 x    36 x   138            427327488       0.0%    100.0%      0.0%
 flops    64 x    64 x    36            434110464       0.0%    100.0%      0.0%
 flops    36 x    64 x    64            434110464       0.0%    100.0%      0.0%
 flops    64 x    36 x    64            434110464       0.0%    100.0%      0.0%
 flops     7 x     8 x    64            483065856       0.0%    100.0%      0.0%
 flops     8 x     7 x    64            483065856       0.0%    100.0%      0.0%
 flops   138 x    64 x    32            515506176       0.0%    100.0%      0.0%
 flops   138 x    32 x    64            515506176       0.0%    100.0%      0.0%
 flops   138 x    64 x    36            579944448       0.0%    100.0%      0.0%
 flops   138 x    36 x    64            579944448       0.0%    100.0%      0.0%
 flops     7 x    32 x     7            853493760       0.0%    100.0%      0.0%
 flops     8 x     8 x    64           1119485952       0.0%    100.0%      0.0%
 flops     7 x    32 x     8           1950842880       0.0%    100.0%      0.0%
 flops     8 x    32 x     7           1950842880       0.0%    100.0%      0.0%
 flops   138 x    64 x   138           2457133056       0.0%    100.0%      0.0%
 flops    64 x    64 x   138           3038773248       0.0%    100.0%      0.0%
 flops    64 x    64 x    64           3087007744       0.0%    100.0%      0.0%
 flops   138 x    64 x    64           4124049408       0.0%    100.0%      0.0%
 flops     8 x    32 x     8           4459069440       0.0%    100.0%      0.0%
 flops inhomo. stacks                           0       0.0%      0.0%      0.0%
 flops total                        33.371697E+09       0.0%    100.0%      0.0%
 flops max/rank                      1.157994E+09       0.0%    100.0%      0.0%
 matmuls inhomo. stacks                         0       0.0%      0.0%      0.0%
 matmuls total                            3203784       0.0%    100.0%      0.0%
 number of processed stacks                 68964       0.0%    100.0%      0.0%
 average stack size                                     0.0      46.5       0.0
 marketing flops                    36.641624E+09
 -------------------------------------------------------------------------------
 # multiplications                            203
 max memory usage/rank             236.470272E+06
 # max total images/rank                        1
 # max 3D layers                                1
 # MPI messages exchanged                   73080
 MPI messages size (bytes):
  total size                         3.335744E+09
  min size                           0.000000E+00
  max size                         152.352000E+03
  average size                      45.645102E+03
 MPI breakdown and total messages size (bytes):
             size <=      128                 510                        0
       128 < size <=     8192                1120                  9175040
      8192 < size <=    32768               39050                927621120
     32768 < size <=   131072               27360               1631093760
    131072 < size <=  4194304                5040                767854080
   4194304 < size <= 16777216                   0                        0
  16777216 < size                               0                        0
 -------------------------------------------------------------------------------
 -                                                                             -
 -                      DBCSR MESSAGE PASSING PERFORMANCE                      -
 -                                                                             -
 -------------------------------------------------------------------------------
 ROUTINE             CALLS      AVE VOLUME [Bytes]
 MP_Bcast               80                     12.
 MP_Allreduce         1204                     11.
 MP_Alltoall           623                  12259.
 MP_ISend             4868                  22128.
 MP_IRecv             4868                  20895.
 -------------------------------------------------------------------------------

 -------------------------------------------------------------------------------
 -                                                                             -
 -                                GRID STATISTICS                              -
 -                                                                             -
 -------------------------------------------------------------------------------
 LP    KERNEL             BACKEND                              COUNT     PERCENT
 1     collocate general  REF                                 184032      29.75%
 2     collocate general  REF                                 105408      17.04%
 0     collocate general  REF                                  92664      14.98%
 1     integrate general  REF                                  92016      14.88%
 2     integrate general  REF                                  52704       8.52%
 0     integrate general  REF                                  46332       7.49%
 3     collocate general  REF                                  28512       4.61%
 3     integrate general  REF                                  14256       2.30%
 4     collocate general  REF                                   1728       0.28%
 4     integrate general  REF                                    864       0.14%
 -------------------------------------------------------------------------------

 MEMORY| Estimated peak process memory [MiB]                                 230

 -------------------------------------------------------------------------------
 ----                             MULTIGRID INFO                            ----
 -------------------------------------------------------------------------------
 count for grid        1:           8100          cutoff [a.u.]          150.00
 count for grid        2:          40500          cutoff [a.u.]           50.00
 count for grid        3:          25344          cutoff [a.u.]           16.67
 count for grid        4:              0          cutoff [a.u.]            5.56
 total gridlevel count  :          73944

 -------------------------------------------------------------------------------
 -                                                                             -
 -                         MESSAGE PASSING PERFORMANCE                         -
 -                                                                             -
 -------------------------------------------------------------------------------

 ROUTINE             CALLS      AVE VOLUME [Bytes]
 MP_Group                4
 MP_Bcast              710                 213039.
 MP_Allreduce         1351                    570.
 MP_Sync                62
 MP_Alltoall            91                2162134.
 MP_ISendRecv         3465                 184953.
 MP_Wait              3465
 MP_Recv                10                 211968.
 -------------------------------------------------------------------------------


 -------------------------------------------------------------------------------
 -                                                                             -
 -                           R E F E R E N C E S                               -
 -                                                                             -
 -------------------------------------------------------------------------------
 
 CP2K version 10.0 (Development Version), the CP2K developers group (2022).
 CP2K is freely available from https://www.cp2k.org/ .

 Kuehne,Thomas D.; Iannuzzi,Marcella; Del Ben,Mauro;
 Rybkin,Vladimir V.; Seewald,Patrick; Stein,Frederick; Laino,Teodoro;
 Khaliullin,Rustam Z.; Schuett,Ole; Schiffmann,Florian; Golze,Dorothea;
 Wilhelm,Jan; Chulkov,Sergey; Bani-Hashemian,Mohammad Hossein;
 Weber,Valery; Borstnik,Urban; Taillefumier,Mathieu;
 Jakobovits,Alice Shoshana; Lazzaro,Alfio; Pabst,Hans; Mueller,Tiziano;
 Schade,Robert; Guidon,Manuel; Andermatt,Samuel; Holmberg,Nico;
 Schenter,Gregory K.; Hehn,Anna; Bussy,Augustin; Belleflamme,Fabian;
 Tabacchi,Gloria; Gloess,Andreas; Lass,Michael; Bethune,Iain;
 Mundy,Christopher J.; Plessl,Christian; Watkins,Matt;
 VandeVondele,Joost; Krack,Matthias; Hutter,Juerg. 
 The Journal of Chemical Physics, 152 (19), (2020). 
 CP2K: An electronic structure and molecular dynamics software package -
 Quickstep: Efficient and accurate electronic structure calculations.
 https://doi.org/10.1063/5.0007045

 Schuett, Ole; Messmer, Peter; Hutter, Juerg; VandeVondele, Joost. 
 Electronic Structure Calculations on Graphics Processing Units, John
 Wiley & Sons, Ltd, 173-190 (2016). 
 GPU-Accelerated Sparse Matrix-Matrix Multiplication for
 Linear Scaling Density Functional Theory.
 https://doi.org/10.1002/9781118670712.ch8

 Heinecke, A; Henry, G; Hutchinson, M; Pabst, H. 
 Proceedings of Intl. Supercomputing Conference, 981-991 (2016). 
 LIBXSMM: Accelerating Small Matrix Multiplications
 by Runtime Code Generation.
 https://doi.org/10.1109/SC.2016.83

 Borstnik, U; VandeVondele, J; Weber, V; Hutter, J. 
 PARALLEL COMPUTING, 40 (5-6), 47-58 (2014). 
 Sparse matrix multiplication: The distributed block-compressed sparse
 row library.
 https://doi.org/10.1016/j.parco.2014.03.012

 Hutter, J; Iannuzzi, M; Schiffmann, F; VandeVondele, J. 
 WIREs Comput Mol Sci., 4 (1), 15-25 (2014). 
 CP2K: atomistic simulations of condensed matter systems.
 https://doi.org/10.1002/wcms.1159

 Guidon, M; Hutter, J; VandeVondele, J. 
 JOURNAL OF CHEMICAL THEORY AND COMPUTATION, 5 (11), 3010-3021 (2009). 
 Robust Periodic Hartree-Fock Exchange for Large-Scale Simulations Using
 Gaussian Basis Sets.
 https://doi.org/10.1021/ct900494g

 Guidon, M; Schiffmann, F; Hutter, J; VandeVondele, J. 
 JOURNAL OF CHEMICAL PHYSICS, 128 (21), 214104 (2008). 
 Ab initio molecular dynamics using hybrid density functionals.
 https://doi.org/10.1063/1.2931945

 Krack, M. 
 THEORETICAL CHEMISTRY ACCOUNTS, 114 (1-3), 145-152 (2005). 
 Pseudopotentials for H to Kr optimized for gradient-corrected
 exchange-correlation functionals.
 https://doi.org/10.1007/s00214-005-0655-y

 VandeVondele, J; Krack, M; Mohamed, F; Parrinello, M; Chassaing, T;
 Hutter, J. COMPUTER PHYSICS COMMUNICATIONS, 167 (2), 103-128 (2005). 
 QUICKSTEP: Fast and accurate density functional calculations using a
 mixed Gaussian and plane waves approach.
 https://doi.org/10.1016/j.cpc.2004.12.014

 Frigo, M; Johnson, SG. 
 PROCEEDINGS OF THE IEEE, 93 (2), 216-231 (2005). 
 The design and implementation of FFTW3.
 https://doi.org/10.1109/JPROC.2004.840301

 VandeVondele, J; Hutter, J. 
 JOURNAL OF CHEMICAL PHYSICS, 118 (10), 4365-4369 (2003). 
 An efficient orbital transformation method for electronic structure
 calculations.
 https://doi.org/10.1063/1.1543154

 Hartwigsen, C; Goedecker, S; Hutter, J. 
 PHYSICAL REVIEW B, 58 (7), 3641-3662 (1998). 
 Relativistic separable dual-space Gaussian pseudopotentials from H to Rn.
 https://doi.org/10.1103/PhysRevB.58.3641

 Lippert, G; Hutter, J; Parrinello, M. 
 MOLECULAR PHYSICS, 92 (3), 477-487 (1997). 
 A hybrid Gaussian and plane wave density functional scheme.
 https://doi.org/10.1080/002689797170220

 Goedecker, S; Teter, M; Hutter, J. 
 PHYSICAL REVIEW B, 54 (3), 1703-1710 (1996). 
 Separable dual-space Gaussian pseudopotentials.
 https://doi.org/10.1103/PhysRevB.54.1703


 -------------------------------------------------------------------------------
 -                                                                             -
 -                                T I M I N G                                  -
 -                                                                             -
 -------------------------------------------------------------------------------
 SUBROUTINE                       CALLS  ASD         SELF TIME        TOTAL TIME
                                MAXIMUM       AVERAGE  MAXIMUM  AVERAGE  MAXIMUM
 CP2K                                 1  1.0    0.007    0.030    7.643    7.644
 qs_energies                          1  2.0    0.000    0.000    7.523    7.524
 scf_env_do_scf                       1  3.0    0.000    0.000    6.912    6.913
 scf_env_do_scf_inner_loop           11  4.0    0.000    0.001    5.254    5.257
 qs_ks_update_qs_env                 12  5.0    0.000    0.000    4.060    4.063
 rebuild_ks_matrix                   11  6.0    0.000    0.000    4.058    4.060
 qs_ks_build_kohn_sham_matrix        11  7.0    0.002    0.003    4.058    4.060
 hfx_ks_matrix                       11  8.0    0.000    0.000    2.789    2.793
 integrate_four_center               11  9.0    0.037    0.425    2.788    2.792
 qs_rho_update_rho                   12  5.0    0.000    0.000    2.519    2.522
 calculate_rho_elec                  12  6.0    0.004    0.005    2.519    2.521
 mp_waitall_1                     16457 13.4    1.999    2.411    1.999    2.411
 rs_pw_transfer                      75  8.9    0.001    0.002    1.856    2.264
 density_rs2pw                       12  7.0    0.001    0.001    1.460    1.871
 integrate_four_center_main          11 10.0    0.003    0.004    1.626    1.784
 integrate_four_center_bin          748 11.0    1.623    1.781    1.623    1.781
 init_scf_loop                        1  4.0    0.000    0.000    1.654    1.654
 rs_pw_transfer_RS2PW_150            14  8.8    0.099    0.153    1.135    1.549
 grid_collocate_task_list            12  7.0    1.041    1.406    1.041    1.406
 sum_up_and_integrate                 6  8.0    0.000    0.000    0.955    1.140
 integrate_v_rspace                   6  9.0    0.001    0.001    0.955    1.140
 dbcsr_multiply_generic             203  9.9    0.006    0.006    0.672    0.882
 grid_integrate_task_list             6 10.0    0.453    0.639    0.453    0.639
 mp_sum_l                          1322  8.7    0.294    0.503    0.294    0.503
 potential_pw2rs                      6 10.0    0.000    0.000    0.501    0.503
 qs_scf_new_mos                      11  5.0    0.000    0.000    0.442    0.446
 qs_scf_loop_do_ot                   11  6.0    0.000    0.000    0.442    0.446
 mp_bcast_im                        339  7.2    0.428    0.440    0.428    0.440
 ot_scf_mini                         11  7.0    0.000    0.000    0.408    0.411
 rs_pw_transfer_PW2RS_150             7 11.4    0.046    0.077    0.371    0.384
 pw_transfer                        113  8.8    0.007    0.009    0.348    0.358
 mp_sync                             62 10.7    0.219    0.345    0.219    0.345
 fft_wrap_pw1pw2                     91  9.8    0.001    0.001    0.334    0.342
 multiply_cannon                    203 10.9    0.011    0.013    0.301    0.334
 multiply_cannon_loop               203 11.9    0.005    0.006    0.267    0.301
 fft_wrap_pw1pw2_150                 37 10.4    0.020    0.029    0.264    0.286
 fft3d_ps                            91 11.8    0.091    0.126    0.266    0.275
 init_scf_run                         1  3.0    0.000    0.000    0.256    0.256
 scf_env_initial_rho_setup            1  4.0    0.000    0.000    0.256    0.256
 ot_mini                             11  8.0    0.000    0.000    0.224    0.227
 rs_pw_transfer_RS2PW_50             12  9.0    0.015    0.024    0.194    0.210
 qs_ot_get_derivative                 6  9.0    0.000    0.000    0.194    0.197
 integrate_four_center_load          11 10.0    0.000    0.000    0.187    0.188
 hfx_load_balance                     1 11.0    0.000    0.001    0.187    0.188
 qs_energies_init_hamiltonians        1  3.0    0.000    0.000    0.183    0.183
 mp_alltoall_z22v                    91 13.8    0.153    0.181    0.153    0.181
 scf_post_calculation_gpw             1  3.0    0.000    0.000    0.171    0.172
 write_available_results              1  4.0    0.000    0.000    0.171    0.172
 write_mo_free_results                1  5.0    0.001    0.002    0.171    0.172
 multiply_cannon_metrocomm3        1218 12.9    0.002    0.003    0.079    0.151
 qs_ot_get_derivative_taylor          6 10.0    0.000    0.000    0.143    0.146
 qs_env_update_s_mstruct              1  4.0    0.000    0.000    0.113    0.133
 calculate_rho_core                   1  5.0    0.003    0.004    0.111    0.130
 yz_to_x                             55 12.3    0.008    0.011    0.110    0.128
 integrate_four_center_dist_KS       11 10.0    0.005    0.008    0.126    0.127
 multiply_cannon_metrocomm1        1218 12.9    0.003    0.003    0.066    0.113
 integrate_four_center_getP          11 10.0    0.012    0.014    0.101    0.104
 rs_pw_transfer_PW2RS_50              6 12.0    0.009    0.016    0.089    0.103
 make_m2s                           406 10.9    0.004    0.004    0.094    0.101
 hfx_load_balance_count               1 12.0    0.072    0.094    0.072    0.094
 multiply_cannon_multrec           1218 12.9    0.074    0.091    0.074    0.091
 calculate_hirshfeld_normalizat       1  6.0    0.018    0.029    0.085    0.091
 build_core_hamiltonian_matrix        1  4.0    0.000    0.000    0.067    0.091
 calc_screening_functions             1 10.0    0.024    0.027    0.080    0.091
 qs_ot_get_p                         12  7.8    0.000    0.000    0.085    0.089
 mp_sum_d                           659  4.6    0.065    0.089    0.065    0.089
 hfx_load_balance_bin                 1 12.0    0.071    0.083    0.071    0.083
 prepare_preconditioner               1  5.0    0.000    0.000    0.082    0.083
 make_preconditioner                  1  6.0    0.000    0.000    0.082    0.083
 powell_optimize                  29079 11.0    0.075    0.082    0.075    0.082
 make_images                        406 11.9    0.007    0.008    0.073    0.081
 hirshfeld_integration                1  6.0    0.013    0.024    0.078    0.078
 -------------------------------------------------------------------------------

 The number of warnings for this run is : 1
 
 -------------------------------------------------------------------------------
  **** **** ******  **  PROGRAM ENDED AT                 2022-05-26 22:06:14.061
 ***** ** ***  *** **   PROGRAM RAN ON                                   tcopt11
 **    ****   ******    PROGRAM RAN BY                                   wilhelm
 ***** **    ** ** **   PROGRAM PROCESS ID                                 93230
  **** **  *******  **  PROGRAM STOPPED IN /data/wilhelm/55_check_HFX/7_HFX_MoS2
                                           _PERIODIC_XY_FIXED_CODE/02_height_06A
                                           _E_
