 DBCSR| CPU Multiplication driver                                           XSMM
 DBCSR| Multrec recursion limit                                              512
 DBCSR| Multiplication stack size                                           1000
 DBCSR| Maximum elements for images                                    UNLIMITED
 DBCSR| Multiplicative factor virtual images                                   1
 DBCSR| Use multiplication densification                                       T
 DBCSR| Multiplication size stacks                                             3
 DBCSR| Use memory pool for CPU allocation                                     F
 DBCSR| Number of 3D layers                                               SINGLE
 DBCSR| Use MPI memory allocation                                              F
 DBCSR| Use RMA algorithm                                                      F
 DBCSR| Use Communication thread                                               T
 DBCSR| Communication thread load                                             87
 DBCSR| MPI: My node id                                                        0
 DBCSR| MPI: Number of nodes                                                  36
 DBCSR| OMP: Current number of threads                                         1
 DBCSR| OMP: Max number of threads                                             1
 DBCSR| Split modifier for TAS multiplication algorithm                  1.0E+00


  **** **** ******  **  PROGRAM STARTED AT               2022-05-26 21:54:12.798
 ***** ** ***  *** **   PROGRAM STARTED ON                               tcopt11
 **    ****   ******    PROGRAM STARTED BY                               wilhelm
 ***** **    ** ** **   PROGRAM PROCESS ID                                 89339
  **** **  *******  **  PROGRAM STARTED IN /data/wilhelm/55_check_HFX/6_HFX_MoS2
                                           _PERIODIC_XYZ/02_height_06A_E_

 CP2K| version string:                   CP2K version 10.0 (Development Version)
 CP2K| source code revision number:                                  git:3d29584
 CP2K| cp2kflags: omp libint fftw3 libxc parallel mpi3 scalapack xsmm           
 CP2K| is freely available from                            https://www.cp2k.org/
 CP2K| Program compiled at                      Sun 22 May 2022 01:43:22 PM CEST
 CP2K| Program compiled on                                               tcopt11
 CP2K| Program compiled for                                                local
 CP2K| Data directory path                    /data/wilhelm/52_fix_HFX/cp2k/data
 CP2K| Input file name                                                    HF.inp

 GLOBAL| Force Environment number                                              1
 GLOBAL| Basis set file name                            ../../BASIS_Mo_S_minimal
 GLOBAL| Potential file name                                      GTH_POTENTIALS
 GLOBAL| MM Potential file name                                     MM_POTENTIAL
 GLOBAL| Coordinate file name                                      __STD_INPUT__
 GLOBAL| Method name                                                        CP2K
 GLOBAL| Project name                                                       MoS2
 GLOBAL| Run type                                                         ENERGY
 GLOBAL| FFT library                                                       FFTW3
 GLOBAL| Diagonalization library                                       ScaLAPACK
 GLOBAL| Orthonormality check for eigenvectors                          DISABLED
 GLOBAL| Matrix multiplication library                                 ScaLAPACK
 GLOBAL| All-to-all communication in single precision                          F
 GLOBAL| FFTs using library dependent lengths                                  F
 GLOBAL| Grid backend                                                       AUTO
 GLOBAL| Global print level                                               MEDIUM
 GLOBAL| MPI I/O enabled                                                       T
 GLOBAL| Total number of message passing processes                            36
 GLOBAL| Number of threads for this process                                    1
 GLOBAL| This output is from process                                           0
 GLOBAL| Stack size for threads created by OpenMP (OMP_STACKSIZE)        default
 GLOBAL| CPU model name                          AMD EPYC 7401 24-Core Processor
 GLOBAL| CPUID                                                              1002

 MEMORY| system memory details [Kb]
 MEMORY|                        rank 0           min           max       average
 MEMORY| MemTotal            263969112     263969112     263969112     263969112
 MEMORY| MemFree             209641888     209641888     209641888     209641888
 MEMORY| Buffers               1123200       1123200       1123200       1123200
 MEMORY| Cached               45608892      45608892      45608892      45608892
 MEMORY| Slab                  2850508       2850508       2850508       2850508
 MEMORY| SReclaimable          2287800       2287800       2287800       2287800
 MEMORY| MemLikelyFree       258661780     258661780     258661780     258661780


 *** Fundamental physical constants (SI units) ***

 *** Literature: B. J. Mohr and B. N. Taylor,
 ***             CODATA recommended values of the fundamental physical
 ***             constants: 2006, Web Version 5.1
 ***             http://physics.nist.gov/constants

 Speed of light in vacuum [m/s]                             2.99792458000000E+08
 Magnetic constant or permeability of vacuum [N/A**2]       1.25663706143592E-06
 Electric constant or permittivity of vacuum [F/m]          8.85418781762039E-12
 Planck constant (h) [J*s]                                  6.62606896000000E-34
 Planck constant (h-bar) [J*s]                              1.05457162825177E-34
 Elementary charge [C]                                      1.60217648700000E-19
 Electron mass [kg]                                         9.10938215000000E-31
 Electron g factor [ ]                                     -2.00231930436220E+00
 Proton mass [kg]                                           1.67262163700000E-27
 Fine-structure constant                                    7.29735253760000E-03
 Rydberg constant [1/m]                                     1.09737315685270E+07
 Avogadro constant [1/mol]                                  6.02214179000000E+23
 Boltzmann constant [J/K]                                   1.38065040000000E-23
 Atomic mass unit [kg]                                      1.66053878200000E-27
 Bohr radius [m]                                            5.29177208590000E-11

 *** Conversion factors ***

 [u] -> [a.u.]                                              1.82288848426455E+03
 [Angstrom] -> [Bohr] = [a.u.]                              1.88972613288564E+00
 [a.u.] = [Bohr] -> [Angstrom]                              5.29177208590000E-01
 [a.u.] -> [s]                                              2.41888432650478E-17
 [a.u.] -> [fs]                                             2.41888432650478E-02
 [a.u.] -> [J]                                              4.35974393937059E-18
 [a.u.] -> [N]                                              8.23872205491840E-08
 [a.u.] -> [K]                                              3.15774647902944E+05
 [a.u.] -> [kJ/mol]                                         2.62549961709828E+03
 [a.u.] -> [kcal/mol]                                       6.27509468713739E+02
 [a.u.] -> [Pa]                                             2.94210107994716E+13
 [a.u.] -> [bar]                                            2.94210107994716E+08
 [a.u.] -> [atm]                                            2.90362800883016E+08
 [a.u.] -> [eV]                                             2.72113838565563E+01
 [a.u.] -> [Hz]                                             6.57968392072181E+15
 [a.u.] -> [1/cm] (wave numbers)                            2.19474631370540E+05
 [a.u./Bohr**2] -> [1/cm]                                   5.14048714338585E+03
 

 CELL_TOP| Volume [angstrom^3]:                                      1856.117607
 CELL_TOP| Vector a [angstrom    18.900     0.000     0.000   |a| =    18.900000
 CELL_TOP| Vector b [angstrom    -9.450    16.368     0.000   |b| =    18.900000
 CELL_TOP| Vector c [angstrom     0.000     0.000     6.000   |c| =     6.000000
 CELL_TOP| Angle (b,c), alpha [degree]:                                90.000000
 CELL_TOP| Angle (a,c), beta  [degree]:                                90.000000
 CELL_TOP| Angle (a,b), gamma [degree]:                               120.000000
 CELL_TOP| Numerically orthorhombic:                                          NO

 CELL_UC| Volume [angstrom^3]:                                         51.558822
 CELL_UC| Vector a [angstrom]     3.150     0.000     0.000   |a| =     3.150000
 CELL_UC| Vector b [angstrom]    -1.575     2.728     0.000   |b| =     3.150000
 CELL_UC| Vector c [angstrom]     0.000     0.000     6.000   |c| =     6.000000
 CELL_UC| Angle (b,c), alpha [degree]:                                 90.000000
 CELL_UC| Angle (a,c), beta  [degree]:                                 90.000000
 CELL_UC| Angle (a,b), gamma [degree]:                                120.000000
 CELL_UC| Numerically orthorhombic:                                           NO

 GENERATE|  Preliminary Number of Bonds generated:                             0
 GENERATE|  Achieved consistency in connectivity generation.

 CELL| Volume [angstrom^3]:                                          1856.117607
 CELL| Vector a [angstrom]:      18.900     0.000     0.000   |a| =    18.900000
 CELL| Vector b [angstrom]:      -9.450    16.368     0.000   |b| =    18.900000
 CELL| Vector c [angstrom]:       0.000     0.000     6.000   |c| =     6.000000
 CELL| Angle (b,c), alpha [degree]:                                    90.000000
 CELL| Angle (a,c), beta  [degree]:                                    90.000000
 CELL| Angle (a,b), gamma [degree]:                                   120.000000
 CELL| Numerically orthorhombic:                                              NO

 CELL_REF| Volume [angstrom^3]:                                      1856.117607
 CELL_REF| Vector a [angstrom    18.900     0.000     0.000   |a| =    18.900000
 CELL_REF| Vector b [angstrom    -9.450    16.368     0.000   |b| =    18.900000
 CELL_REF| Vector c [angstrom     0.000     0.000     6.000   |c| =     6.000000
 CELL_REF| Angle (b,c), alpha [degree]:                                90.000000
 CELL_REF| Angle (a,c), beta  [degree]:                                90.000000
 CELL_REF| Angle (a,b), gamma [degree]:                               120.000000
 CELL_REF| Numerically orthorhombic:                                          NO

 *******************************************************************************
 *******************************************************************************
 **                                                                           **
 **     #####                         ##              ##                      **
 **    ##   ##            ##          ##              ##                      **
 **   ##     ##                       ##            ######                    **
 **   ##     ##  ##   ##  ##   #####  ##  ##   ####   ##    #####    #####    **
 **   ##     ##  ##   ##  ##  ##      ## ##   ##      ##   ##   ##  ##   ##   **
 **   ##  ## ##  ##   ##  ##  ##      ####     ###    ##   ######   ######    **
 **    ##  ###   ##   ##  ##  ##      ## ##      ##   ##   ##       ##        **
 **     #######   #####   ##   #####  ##  ##  ####    ##    #####   ##        **
 **           ##                                                    ##        **
 **                                                                           **
 **                                                ... make the atoms dance   **
 **                                                                           **
 **            Copyright (C) by CP2K developers group (2000-2022)             **
 **                      J. Chem. Phys. 152, 194103 (2020)                    **
 **                                                                           **
 *******************************************************************************

 DFT| Spin restricted Kohn-Sham (RKS) calculation                            RKS
 DFT| Multiplicity                                                             1
 DFT| Number of spin states                                                    1
 DFT| Charge                                                                   0
 DFT| Self-interaction correction (SIC)                                       NO
 DFT| Cutoffs: density                                              1.000000E-10
 DFT|          gradient                                             1.000000E-10
 DFT|          tau                                                  1.000000E-10
 DFT|          cutoff_smoothing_range                               0.000000E+00
 DFT| XC density smoothing                                                  NONE
 DFT| XC derivatives                                                          PW
 FUNCTIONAL| NO EXCHANGE-CORRELATION FUNCTIONAL USED.

 QS| Method:                                                                 GPW
 QS| Density plane wave grid type                        NON-SPHERICAL FULLSPACE
 QS| Number of grid levels:                                                    4
 QS| Density cutoff [a.u.]:                                                150.0
 QS| Multi grid cutoff [a.u.]: 1) grid level                               150.0
 QS|                           2) grid level                                50.0
 QS|                           3) grid level                                16.7
 QS|                           4) grid level                                 5.6
 QS| Grid level progression factor:                                          3.0
 QS| Relative density cutoff [a.u.]:                                        20.0
 QS| Interaction thresholds: eps_pgf_orb:                                1.0E-20
 QS|                         eps_filter_matrix:                          0.0E+00
 QS|                         eps_core_charge:                            1.0E-22
 QS|                         eps_rho_gspace:                             1.0E-20
 QS|                         eps_rho_rspace:                             1.0E-20
 QS|                         eps_gvg_rspace:                             1.0E-10
 QS|                         eps_ppl:                                    1.0E-02
 QS|                         eps_ppnl:                                   1.0E-12


 ATOMIC KIND INFORMATION

  1. Atomic kind: Mo                                    Number of atoms:      36

     Orbital Basis Set                                                   minimal

       Number of orbital shell sets:                                           3
       Number of orbital shells:                                               3
       Number of primitive Cartesian functions:                                3
       Number of Cartesian basis functions:                                    8
       Number of spherical basis functions:                                    7
       Norm type:                                                              2

       Normalised Cartesian orbitals:

                        Set   Shell   Orbital            Exponent    Coefficient

                          1       1    1s                0.400000       0.358472

                          2       1    1s                2.000000       1.198623

                          3       1    1dx2              1.000000       1.645923
                          3       1    1dxy              1.000000       2.850822
                          3       1    1dxz              1.000000       2.850822
                          3       1    1dy2              1.000000       1.645923
                          3       1    1dyz              1.000000       2.850822
                          3       1    1dz2              1.000000       1.645923

       Atomic covalent radius [Angstrom]:                                  1.300

       Atomic van der Waals radius [Angstrom]:                             1.670

     GTH Potential information for                                   GTH-PADE-q6

       Description:                       Goedecker-Teter-Hutter pseudopotential
                                           Goedecker et al., PRB 54, 1703 (1996)
                                          Hartwigsen et al., PRB 58, 3641 (1998)
                                                      Krack, TCA 114, 145 (2005)

       Gaussian exponent of the core charge distribution:               1.023330
       Electronic configuration (s p d ...):                           1   0   5

       Parameters of the local part of the GTH pseudopotential:

                          rloc        C1          C2          C3          C4
                        0.699000    7.995868

       Parameters of the non-local part of the GTH pseudopotential:

                   l      r(l)      h(i,j,l)

                   0    0.678126    1.289607   -0.386568
                                   -0.386568    0.998113
                   1    0.800771    0.301412   -0.313389
                                   -0.313389    0.741615
                   2    0.453384   -2.809708    3.007755
                                    3.007755   -6.820946

  2. Atomic kind: S                                     Number of atoms:      72

     Orbital Basis Set                                                   minimal

       Number of orbital shell sets:                                           4
       Number of orbital shells:                                               4
       Number of primitive Cartesian functions:                                4
       Number of Cartesian basis functions:                                    8
       Number of spherical basis functions:                                    8
       Norm type:                                                              2

       Normalised Cartesian orbitals:

                        Set   Shell   Orbital            Exponent    Coefficient

                          1       1    1s                0.400000       0.358472

                          2       1    1s                2.000000       1.198623

                          3       1    1px               0.300000       0.316477
                          3       1    1py               0.300000       0.316477
                          3       1    1pz               0.300000       0.316477

                          4       1    1px               0.800000       1.078456
                          4       1    1py               0.800000       1.078456
                          4       1    1pz               0.800000       1.078456

       Atomic covalent radius [Angstrom]:                                  1.020

       Atomic van der Waals radius [Angstrom]:                             1.800

     GTH Potential information for                                   GTH-PADE-q6

       Description:                       Goedecker-Teter-Hutter pseudopotential
                                           Goedecker et al., PRB 54, 1703 (1996)
                                          Hartwigsen et al., PRB 58, 3641 (1998)
                                                      Krack, TCA 114, 145 (2005)

       Gaussian exponent of the core charge distribution:               2.834467
       Electronic configuration (s p d ...):                               2   4

       Parameters of the local part of the GTH pseudopotential:

                          rloc        C1          C2          C3          C4
                        0.420000   -6.554492

       Parameters of the non-local part of the GTH pseudopotential:

                   l      r(l)      h(i,j,l)

                   0    0.361757    7.905303   -1.731881
                                   -1.731881    4.471698
                   1    0.405285    3.866579


 MOLECULE KIND INFORMATION


 All atoms are their own molecule, skipping detailed information


 TOTAL NUMBERS AND MAXIMUM NUMBERS

  Total number of            - Atomic kinds:                                   2
                             - Atoms:                                        108
                             - Shell sets:                                   396
                             - Shells:                                       396
                             - Primitive Cartesian functions:                396
                             - Cartesian basis functions:                    864
                             - Spherical basis functions:                    828

  Maximum angular momentum of- Orbital basis functions:                        2
                             - Local part of the GTH pseudopotential:          0
                             - Non-local part of the GTH pseudopotential:      4


 MODULE QUICKSTEP:  ATOMIC COORDINATES IN angstrom

 Atom  Kind  Element       X           Y           Z          Z(eff)       Mass
    1   1 Mo  42       0.000000    1.818650    3.075000       6.0000     95.9600
    2   2 S   16       0.000000    3.637310    1.488300       6.0000     32.0650
    3   2 S   16       0.000000    3.637310    4.661700       6.0000     32.0650
    4   1 Mo  42       3.150000    1.818650    3.075000       6.0000     95.9600
    5   2 S   16       3.150000    3.637310    1.488300       6.0000     32.0650
    6   2 S   16       3.150000    3.637310    4.661700       6.0000     32.0650
    7   1 Mo  42       6.300000    1.818650    3.075000       6.0000     95.9600
    8   2 S   16       6.300000    3.637310    1.488300       6.0000     32.0650
    9   2 S   16       6.300000    3.637310    4.661700       6.0000     32.0650
   10   1 Mo  42       9.450000    1.818650    3.075000       6.0000     95.9600
   11   2 S   16       9.450000    3.637310    1.488300       6.0000     32.0650
   12   2 S   16       9.450000    3.637310    4.661700       6.0000     32.0650
   13   1 Mo  42      12.600000    1.818650    3.075000       6.0000     95.9600
   14   2 S   16      12.600000    3.637310    1.488300       6.0000     32.0650
   15   2 S   16      12.600000    3.637310    4.661700       6.0000     32.0650
   16   1 Mo  42      15.750000    1.818650    3.075000       6.0000     95.9600
   17   2 S   16      15.750000    3.637310    1.488300       6.0000     32.0650
   18   2 S   16      15.750000    3.637310    4.661700       6.0000     32.0650
   19   1 Mo  42      -1.575000    4.546630    3.075000       6.0000     95.9600
   20   2 S   16      -1.575000    6.365290    1.488300       6.0000     32.0650
   21   2 S   16      -1.575000    6.365290    4.661700       6.0000     32.0650
   22   1 Mo  42       1.575000    4.546630    3.075000       6.0000     95.9600
   23   2 S   16       1.575000    6.365290    1.488300       6.0000     32.0650
   24   2 S   16       1.575000    6.365290    4.661700       6.0000     32.0650
   25   1 Mo  42       4.725000    4.546630    3.075000       6.0000     95.9600
   26   2 S   16       4.725000    6.365290    1.488300       6.0000     32.0650
   27   2 S   16       4.725000    6.365290    4.661700       6.0000     32.0650
   28   1 Mo  42       7.875000    4.546630    3.075000       6.0000     95.9600
   29   2 S   16       7.875000    6.365290    1.488300       6.0000     32.0650
   30   2 S   16       7.875000    6.365290    4.661700       6.0000     32.0650
   31   1 Mo  42      11.025000    4.546630    3.075000       6.0000     95.9600
   32   2 S   16      11.025000    6.365290    1.488300       6.0000     32.0650
   33   2 S   16      11.025000    6.365290    4.661700       6.0000     32.0650
   34   1 Mo  42      14.175000    4.546630    3.075000       6.0000     95.9600
   35   2 S   16      14.175000    6.365290    1.488300       6.0000     32.0650
   36   2 S   16      14.175000    6.365290    4.661700       6.0000     32.0650
   37   1 Mo  42      -3.150000    7.274610    3.075000       6.0000     95.9600
   38   2 S   16      -3.150000    9.093270    1.488300       6.0000     32.0650
   39   2 S   16      -3.150000    9.093270    4.661700       6.0000     32.0650
   40   1 Mo  42       0.000000    7.274610    3.075000       6.0000     95.9600
   41   2 S   16       0.000000    9.093270    1.488300       6.0000     32.0650
   42   2 S   16       0.000000    9.093270    4.661700       6.0000     32.0650
   43   1 Mo  42       3.150000    7.274610    3.075000       6.0000     95.9600
   44   2 S   16       3.150000    9.093270    1.488300       6.0000     32.0650
   45   2 S   16       3.150000    9.093270    4.661700       6.0000     32.0650
   46   1 Mo  42       6.300000    7.274610    3.075000       6.0000     95.9600
   47   2 S   16       6.300000    9.093270    1.488300       6.0000     32.0650
   48   2 S   16       6.300000    9.093270    4.661700       6.0000     32.0650
   49   1 Mo  42       9.450000    7.274610    3.075000       6.0000     95.9600
   50   2 S   16       9.450000    9.093270    1.488300       6.0000     32.0650
   51   2 S   16       9.450000    9.093270    4.661700       6.0000     32.0650
   52   1 Mo  42      12.600000    7.274610    3.075000       6.0000     95.9600
   53   2 S   16      12.600000    9.093270    1.488300       6.0000     32.0650
   54   2 S   16      12.600000    9.093270    4.661700       6.0000     32.0650
   55   1 Mo  42      -4.725000   10.002590    3.075000       6.0000     95.9600
   56   2 S   16      -4.725000   11.821250    1.488300       6.0000     32.0650
   57   2 S   16      -4.725000   11.821250    4.661700       6.0000     32.0650
   58   1 Mo  42      -1.575000   10.002590    3.075000       6.0000     95.9600
   59   2 S   16      -1.575000   11.821250    1.488300       6.0000     32.0650
   60   2 S   16      -1.575000   11.821250    4.661700       6.0000     32.0650
   61   1 Mo  42       1.575000   10.002590    3.075000       6.0000     95.9600
   62   2 S   16       1.575000   11.821250    1.488300       6.0000     32.0650
   63   2 S   16       1.575000   11.821250    4.661700       6.0000     32.0650
   64   1 Mo  42       4.725000   10.002590    3.075000       6.0000     95.9600
   65   2 S   16       4.725000   11.821250    1.488300       6.0000     32.0650
   66   2 S   16       4.725000   11.821250    4.661700       6.0000     32.0650
   67   1 Mo  42       7.875000   10.002590    3.075000       6.0000     95.9600
   68   2 S   16       7.875000   11.821250    1.488300       6.0000     32.0650
   69   2 S   16       7.875000   11.821250    4.661700       6.0000     32.0650
   70   1 Mo  42      11.025000   10.002590    3.075000       6.0000     95.9600
   71   2 S   16      11.025000   11.821250    1.488300       6.0000     32.0650
   72   2 S   16      11.025000   11.821250    4.661700       6.0000     32.0650
   73   1 Mo  42      -6.300000   12.730570    3.075000       6.0000     95.9600
   74   2 S   16      -6.300000   14.549230    1.488300       6.0000     32.0650
   75   2 S   16      -6.300000   14.549230    4.661700       6.0000     32.0650
   76   1 Mo  42      -3.150000   12.730570    3.075000       6.0000     95.9600
   77   2 S   16      -3.150000   14.549230    1.488300       6.0000     32.0650
   78   2 S   16      -3.150000   14.549230    4.661700       6.0000     32.0650
   79   1 Mo  42       0.000000   12.730570    3.075000       6.0000     95.9600
   80   2 S   16       0.000000   14.549230    1.488300       6.0000     32.0650
   81   2 S   16       0.000000   14.549230    4.661700       6.0000     32.0650
   82   1 Mo  42       3.150000   12.730570    3.075000       6.0000     95.9600
   83   2 S   16       3.150000   14.549230    1.488300       6.0000     32.0650
   84   2 S   16       3.150000   14.549230    4.661700       6.0000     32.0650
   85   1 Mo  42       6.300000   12.730570    3.075000       6.0000     95.9600
   86   2 S   16       6.300000   14.549230    1.488300       6.0000     32.0650
   87   2 S   16       6.300000   14.549230    4.661700       6.0000     32.0650
   88   1 Mo  42       9.450000   12.730570    3.075000       6.0000     95.9600
   89   2 S   16       9.450000   14.549230    1.488300       6.0000     32.0650
   90   2 S   16       9.450000   14.549230    4.661700       6.0000     32.0650
   91   1 Mo  42      -7.875000   15.458550    3.075000       6.0000     95.9600
   92   2 S   16      -7.875000   17.277210    1.488300       6.0000     32.0650
   93   2 S   16      -7.875000   17.277210    4.661700       6.0000     32.0650
   94   1 Mo  42      -4.725000   15.458550    3.075000       6.0000     95.9600
   95   2 S   16      -4.725000   17.277210    1.488300       6.0000     32.0650
   96   2 S   16      -4.725000   17.277210    4.661700       6.0000     32.0650
   97   1 Mo  42      -1.575000   15.458550    3.075000       6.0000     95.9600
   98   2 S   16      -1.575000   17.277210    1.488300       6.0000     32.0650
   99   2 S   16      -1.575000   17.277210    4.661700       6.0000     32.0650
  100   1 Mo  42       1.575000   15.458550    3.075000       6.0000     95.9600
  101   2 S   16       1.575000   17.277210    1.488300       6.0000     32.0650
  102   2 S   16       1.575000   17.277210    4.661700       6.0000     32.0650
  103   1 Mo  42       4.725000   15.458550    3.075000       6.0000     95.9600
  104   2 S   16       4.725000   17.277210    1.488300       6.0000     32.0650
  105   2 S   16       4.725000   17.277210    4.661700       6.0000     32.0650
  106   1 Mo  42       7.875000   15.458550    3.075000       6.0000     95.9600
  107   2 S   16       7.875000   17.277210    1.488300       6.0000     32.0650
  108   2 S   16       7.875000   17.277210    4.661700       6.0000     32.0650




 SCF PARAMETERS         Density guess:                                   RESTART
                        --------------------------------------------------------
                        max_scf:                                              40
                        max_scf_history:                                       0
                        max_diis:                                              4
                        --------------------------------------------------------
                        eps_scf:                                        1.00E-05
                        eps_scf_history:                                0.00E+00
                        eps_diis:                                       1.00E-01
                        eps_eigval:                                     1.00E-05
                        --------------------------------------------------------
                        level_shift [a.u.]:                             0.000000
                        --------------------------------------------------------
                        Outer loop SCF in use 
                        No variables optimised in outer loop
                        eps_scf                                         1.00E-05
                        max_scf                                               50
                        No outer loop optimization
                        step_size                                       5.00E-01

 PW_GRID| Information for grid number                                          1
 PW_GRID| Grid distributed over                                    36 processors
 PW_GRID| Real space group dimensions                                    36    1
 PW_GRID| the grid is blocked:                                                NO
 PW_GRID| Cutoff [a.u.]                                                    150.0
 PW_GRID| spherical cutoff:                                                   NO
 PW_GRID|   Bounds   1           -100      99                Points:         200
 PW_GRID|   Bounds   2           -100      99                Points:         200
 PW_GRID|   Bounds   3            -32      31                Points:          64
 PW_GRID| Volume element (a.u.^3)  0.4893E-02     Volume (a.u.^3)     12525.7026
 PW_GRID| Grid span                                                    FULLSPACE
 PW_GRID|   Distribution                         Average         Max         Min
 PW_GRID|   G-Vectors                            71111.1       71200       71000
 PW_GRID|   G-Rays                                 355.6         356         355
 PW_GRID|   Real Space Points                    71111.1       76800       64000

 PW_GRID| Information for grid number                                          2
 PW_GRID| Number of the reference grid                                         1
 PW_GRID| Grid distributed over                                    36 processors
 PW_GRID| Real space group dimensions                                    36    1
 PW_GRID| the grid is blocked:                                                NO
 PW_GRID| Cutoff [a.u.]                                                     50.0
 PW_GRID| spherical cutoff:                                                   NO
 PW_GRID|   Bounds   1            -60      59                Points:         120
 PW_GRID|   Bounds   2            -60      59                Points:         120
 PW_GRID|   Bounds   3            -20      19                Points:          40
 PW_GRID| Volume element (a.u.^3)  0.2175E-01     Volume (a.u.^3)     12525.7026
 PW_GRID| Grid span                                                    FULLSPACE
 PW_GRID|   Distribution                         Average         Max         Min
 PW_GRID|   G-Vectors                            16000.0       16560       15360
 PW_GRID|   G-Rays                                 133.3         138         128
 PW_GRID|   Real Space Points                    16000.0       19200       14400

 PW_GRID| Information for grid number                                          3
 PW_GRID| Number of the reference grid                                         1
 PW_GRID| Grid distributed over                                    36 processors
 PW_GRID| Real space group dimensions                                    36    1
 PW_GRID| the grid is blocked:                                                NO
 PW_GRID| Cutoff [a.u.]                                                     16.7
 PW_GRID| spherical cutoff:                                                   NO
 PW_GRID|   Bounds   1            -36      35                Points:          72
 PW_GRID|   Bounds   2            -36      35                Points:          72
 PW_GRID|   Bounds   3            -12      11                Points:          24
 PW_GRID| Volume element (a.u.^3)  0.1007         Volume (a.u.^3)     12525.7026
 PW_GRID| Grid span                                                    FULLSPACE
 PW_GRID|   Distribution                         Average         Max         Min
 PW_GRID|   G-Vectors                             3456.0        3816        3096
 PW_GRID|   G-Rays                                  48.0          53          43
 PW_GRID|   Real Space Points                     3456.0        3456        3456

 PW_GRID| Information for grid number                                          4
 PW_GRID| Number of the reference grid                                         1
 PW_GRID| Grid distributed over                                    36 processors
 PW_GRID| Real space group dimensions                                    36    1
 PW_GRID| the grid is blocked:                                                NO
 PW_GRID| Cutoff [a.u.]                                                      5.6
 PW_GRID| spherical cutoff:                                                   NO
 PW_GRID|   Bounds   1            -20      19                Points:          40
 PW_GRID|   Bounds   2            -20      19                Points:          40
 PW_GRID|   Bounds   3             -7       7                Points:          15
 PW_GRID| Volume element (a.u.^3)  0.5219         Volume (a.u.^3)     12525.7026
 PW_GRID| Grid span                                                    FULLSPACE
 PW_GRID|   Distribution                         Average         Max         Min
 PW_GRID|   G-Vectors                              666.7         720         600
 PW_GRID|   G-Rays                                  16.7          18          15
 PW_GRID|   Real Space Points                      666.7        1200         600

 POISSON| Solver                                                        PERIODIC
 POISSON| Periodicity                                                        XYZ

 RS_GRID| Information for grid number                                          1
 RS_GRID|   Bounds   1           -100      99                Points:         200
 RS_GRID|   Bounds   2           -100      99                Points:         200
 RS_GRID|   Bounds   3            -32      31                Points:          64
 RS_GRID| Real space fully replicated
 RS_GRID| Group size                                                           1

 RS_GRID| Information for grid number                                          2
 RS_GRID|   Bounds   1            -60      59                Points:         120
 RS_GRID|   Bounds   2            -60      59                Points:         120
 RS_GRID|   Bounds   3            -20      19                Points:          40
 RS_GRID| Real space fully replicated
 RS_GRID| Group size                                                           1

 RS_GRID| Information for grid number                                          3
 RS_GRID|   Bounds   1            -36      35                Points:          72
 RS_GRID|   Bounds   2            -36      35                Points:          72
 RS_GRID|   Bounds   3            -12      11                Points:          24
 RS_GRID| Real space fully replicated
 RS_GRID| Group size                                                           1

 RS_GRID| Information for grid number                                          4
 RS_GRID|   Bounds   1            -20      19                Points:          40
 RS_GRID|   Bounds   2            -20      19                Points:          40
 RS_GRID|   Bounds   3             -7       7                Points:          15
 RS_GRID| Real space fully replicated
 RS_GRID| Group size                                                           1

 *** WARNING in hfx_types.F:1969 :: Periodic Hartree Fock calculation      ***
 *** requested with use of a truncated or shortrange potential. The cutoff ***
 *** radius is larger than half the minimal cell dimension. This may lead  ***
 *** to unphysical total energies. Reduce the cutoff radius in order to    ***
 *** avoid possible problems.                                              ***


  HFX_INFO| Replica ID:                                                        1
  HFX_INFO| FRACTION:                                               1.0000000000
  HFX_INFO| Interaction Potential:                                     TRUNCATED
  HFX_INFO| Cutoff Radius [angstrom]:                               9.0000000000
  HFX_INFO| EPS_SCHWARZ:                                                 1.0E-06
  HFX_INFO| EPS_SCHWARZ_FORCES                                           1.0E-06
  HFX_INFO| EPS_STORAGE_SCALING:                                         1.0E-01
  HFX_INFO| NBINS:                                                            64
  HFX_INFO| BLOCK_SIZE:                                                        2
  HFX_INFO| NUMBER_OF_SHELLS:                                               AUTO
  HFX_INFO| Number of periodic shells considered:                             -1
  HFX_INFO| Number of periodic cells considered:                              37


 Number of electrons:                                                        648
 Number of occupied orbitals:                                                324
 Number of molecular orbitals:                                               324

 Number of orbital functions:                                                828
 Number of independent orbital functions:                                    828

 Extrapolation method: initial_guess


 SCF WAVEFUNCTION OPTIMIZATION

  ----------------------------------- OT ---------------------------------------
  Minimizer      : CG                  : conjugate gradient
  Preconditioner : FULL_SINGLE_INVERSE : inversion of 
                                         H + eS - 2*(Sc)(c^T*H*c+const)(Sc)^T
  Precond_solver : DEFAULT
  Line search    : 2PNT                : 2 energies, one gradient
  stepsize       :    0.08000000                  energy_gap     :    0.08000000
  eps_taylor     :   0.10000E-15                  max_taylor     :             4
  ----------------------------------- OT ---------------------------------------

  Step     Update method      Time    Convergence         Total energy    Change
  ------------------------------------------------------------------------------

  HFX_MEM_INFO| Est. max. program size before HFX [MiB]:                     231
  HFX_MEM_INFO| Number of cart. primitive ERI's calculated:           1757240766
  HFX_MEM_INFO| Number of sph. ERI's calculated:                       312515854
  HFX_MEM_INFO| Number of sph. ERI's stored in-core:                   123525948
  HFX_MEM_INFO| Number of sph. ERI's stored on disk:                           0
  HFX_MEM_INFO| Number of sph. ERI's calculated on the fly:                    0
  HFX_MEM_INFO| Total memory consumption ERI's RAM [MiB]:                    132
  HFX_MEM_INFO| Whereof max-vals [MiB]:                                        7
  HFX_MEM_INFO| Total compression factor ERI's RAM:                         7.18
  HFX_MEM_INFO| Total memory consumption ERI's disk [MiB]:                     0
  HFX_MEM_INFO| Total compression factor ERI's disk:                        0.00
  HFX_MEM_INFO| Size of density/Fock matrix [MiB]:                             4
  HFX_MEM_INFO| Size of buffers [MiB]:                                         1
  HFX_MEM_INFO| Number of periodic image cells considered:                    37
  HFX_MEM_INFO| Est. max. program size after HFX  [MiB]:                     271

     1 OT CG       0.80E-01    2.4     0.00317337      -951.3121150186 -9.51E+02
     2 OT LS       0.31E+00    0.5                     -951.4999478038
     3 OT CG       0.31E+00    0.7     0.00048078      -951.7239173800 -4.12E-01
     4 OT LS       0.29E+00    0.4                     -951.7328089483
     5 OT CG       0.29E+00    0.7     0.00010273      -951.7328386736 -8.92E-03
     6 OT LS       0.54E+00    0.4                     -951.7334389219
     7 OT CG       0.54E+00    0.7     0.00003973      -951.7336074470 -7.69E-04
     8 OT LS       0.31E+00    0.4                     -951.7336380179
     9 OT CG       0.31E+00    0.7     0.00001050      -951.7336737993 -6.64E-05
    10 OT LS       0.30E+00    0.4                     -951.7336782961
    11 OT CG       0.30E+00    0.7     0.00000267      -951.7336782997 -4.50E-06

  *** SCF run converged in    11 steps ***


  Electronic density on regular grids:       -648.0000000000        0.0000000000
  Core density on regular grids:              648.0000000000        0.0000000000
  Total charge density on r-space grids:        0.0000000000
  Total charge density g-space grids:           0.0000000000

  Overlap energy of the core charge distribution:               0.00003919135878
  Self energy of the core charge distribution:              -2263.95339448397044
  Core Hamiltonian energy:                                    769.74876194851504
  Hartree energy:                                             833.63841354733268
  Exchange-correlation energy:                                  0.00000000000000
  Hartree-Fock Exchange energy:                              -291.16749850298351

  Total energy:                                              -951.73367829974768

  outer SCF iter =    1 RMS gradient =   0.27E-05 energy =       -951.7336782997
  outer SCF loop converged in   1 iterations or   11 steps


 !-----------------------------------------------------------------------------!
                     Mulliken Population Analysis

 #  Atom  Element  Kind  Atomic population                           Net charge
       1     Mo       1          2.740879                              3.259121
       2     S        2          7.626051                             -1.626051
       3     S        2          7.626053                             -1.626053
       4     Mo       1          2.741531                              3.258469
       5     S        2          7.633845                             -1.633845
       6     S        2          7.633844                             -1.633844
       7     Mo       1          2.740705                              3.259295
       8     S        2          7.624004                             -1.624004
       9     S        2          7.624003                             -1.624003
      10     Mo       1          2.741405                              3.258595
      11     S        2          7.629179                             -1.629179
      12     S        2          7.629178                             -1.629178
      13     Mo       1          2.741319                              3.258681
      14     S        2          7.631828                             -1.631828
      15     S        2          7.631828                             -1.631828
      16     Mo       1          2.741505                              3.258495
      17     S        2          7.636069                             -1.636069
      18     S        2          7.636066                             -1.636066
      19     Mo       1          2.742094                              3.257906
      20     S        2          7.635154                             -1.635154
      21     S        2          7.635154                             -1.635154
      22     Mo       1          2.741286                              3.258714
      23     S        2          7.628171                             -1.628171
      24     S        2          7.628171                             -1.628171
      25     Mo       1          2.741358                              3.258642
      26     S        2          7.629769                             -1.629769
      27     S        2          7.629770                             -1.629770
      28     Mo       1          2.741035                              3.258965
      29     S        2          7.627674                             -1.627674
      30     S        2          7.627673                             -1.627673
      31     Mo       1          2.741444                              3.258556
      32     S        2          7.627045                             -1.627045
      33     S        2          7.627046                             -1.627046
      34     Mo       1          2.741776                              3.258224
      35     S        2          7.627454                             -1.627454
      36     S        2          7.627457                             -1.627457
      37     Mo       1          2.741141                              3.258859
      38     S        2          7.624472                             -1.624472
      39     S        2          7.624471                             -1.624471
      40     Mo       1          2.741876                              3.258124
      41     S        2          7.628215                             -1.628215
      42     S        2          7.628215                             -1.628215
      43     Mo       1          2.741403                              3.258597
      44     S        2          7.630843                             -1.630843
      45     S        2          7.630843                             -1.630843
      46     Mo       1          2.741230                              3.258770
      47     S        2          7.628295                             -1.628295
      48     S        2          7.628295                             -1.628295
      49     Mo       1          2.741437                              3.258563
      50     S        2          7.632893                             -1.632893
      51     S        2          7.632893                             -1.632893
      52     Mo       1          2.740685                              3.259315
      53     S        2          7.625576                             -1.625576
      54     S        2          7.625577                             -1.625577
      55     Mo       1          2.741073                              3.258927
      56     S        2          7.630802                             -1.630802
      57     S        2          7.630805                             -1.630805
      58     Mo       1          2.740925                              3.259075
      59     S        2          7.633486                             -1.633486
      60     S        2          7.633487                             -1.633487
      61     Mo       1          2.741207                              3.258793
      62     S        2          7.630138                             -1.630138
      63     S        2          7.630138                             -1.630138
      64     Mo       1          2.741548                              3.258452
      65     S        2          7.632081                             -1.632081
      66     S        2          7.632080                             -1.632080
      67     Mo       1          2.741380                              3.258620
      68     S        2          7.626808                             -1.626808
      69     S        2          7.626809                             -1.626809
      70     Mo       1          2.741457                              3.258543
      71     S        2          7.627482                             -1.627482
      72     S        2          7.627482                             -1.627482
      73     Mo       1          2.741961                              3.258039
      74     S        2          7.634244                             -1.634244
      75     S        2          7.634244                             -1.634244
      76     Mo       1          2.741379                              3.258621
      77     S        2          7.628271                             -1.628271
      78     S        2          7.628273                             -1.628273
      79     Mo       1          2.742080                              3.257920
      80     S        2          7.631664                             -1.631664
      81     S        2          7.631664                             -1.631664
      82     Mo       1          2.741156                              3.258844
      83     S        2          7.624601                             -1.624601
      84     S        2          7.624601                             -1.624601
      85     Mo       1          2.741576                              3.258424
      86     S        2          7.629749                             -1.629749
      87     S        2          7.629749                             -1.629749
      88     Mo       1          2.740807                              3.259193
      89     S        2          7.627827                             -1.627827
      90     S        2          7.627827                             -1.627827
      91     Mo       1          2.741865                              3.258135
      92     S        2          7.631087                             -1.631087
      93     S        2          7.631087                             -1.631087
      94     Mo       1          2.741462                              3.258538
      95     S        2          7.627438                             -1.627438
      96     S        2          7.627439                             -1.627439
      97     Mo       1          2.741240                              3.258760
      98     S        2          7.628367                             -1.628367
      99     S        2          7.628367                             -1.628367
     100     Mo       1          2.741709                              3.258291
     101     S        2          7.632629                             -1.632629
     102     S        2          7.632629                             -1.632629
     103     Mo       1          2.740763                              3.259237
     104     S        2          7.625084                             -1.625084
     105     S        2          7.625084                             -1.625084
     106     Mo       1          2.741289                              3.258711
     107     S        2          7.627208                             -1.627208
     108     S        2          7.627208                             -1.627208
 # Total charge                            648.000000                  0.000000

 !-----------------------------------------------------------------------------!

 !-----------------------------------------------------------------------------!
                           Hirshfeld Charges

  #Atom  Element  Kind  Ref Charge     Population                    Net charge
      1       Mo     1       6.000          4.473                         1.527
      2       S      2       6.000          6.760                        -0.760
      3       S      2       6.000          6.760                        -0.760
      4       Mo     1       6.000          4.474                         1.526
      5       S      2       6.000          6.768                        -0.768
      6       S      2       6.000          6.768                        -0.768
      7       Mo     1       6.000          4.473                         1.527
      8       S      2       6.000          6.757                        -0.757
      9       S      2       6.000          6.757                        -0.757
     10       Mo     1       6.000          4.473                         1.527
     11       S      2       6.000          6.763                        -0.763
     12       S      2       6.000          6.763                        -0.763
     13       Mo     1       6.000          4.473                         1.527
     14       S      2       6.000          6.766                        -0.766
     15       S      2       6.000          6.766                        -0.766
     16       Mo     1       6.000          4.474                         1.526
     17       S      2       6.000          6.771                        -0.771
     18       S      2       6.000          6.771                        -0.771
     19       Mo     1       6.000          4.474                         1.526
     20       S      2       6.000          6.770                        -0.770
     21       S      2       6.000          6.770                        -0.770
     22       Mo     1       6.000          4.473                         1.527
     23       S      2       6.000          6.762                        -0.762
     24       S      2       6.000          6.762                        -0.762
     25       Mo     1       6.000          4.474                         1.526
     26       S      2       6.000          6.764                        -0.764
     27       S      2       6.000          6.764                        -0.764
     28       Mo     1       6.000          4.473                         1.527
     29       S      2       6.000          6.761                        -0.761
     30       S      2       6.000          6.761                        -0.761
     31       Mo     1       6.000          4.474                         1.526
     32       S      2       6.000          6.761                        -0.761
     33       S      2       6.000          6.761                        -0.761
     34       Mo     1       6.000          4.474                         1.526
     35       S      2       6.000          6.761                        -0.761
     36       S      2       6.000          6.761                        -0.761
     37       Mo     1       6.000          4.473                         1.527
     38       S      2       6.000          6.758                        -0.758
     39       S      2       6.000          6.758                        -0.758
     40       Mo     1       6.000          4.474                         1.526
     41       S      2       6.000          6.762                        -0.762
     42       S      2       6.000          6.762                        -0.762
     43       Mo     1       6.000          4.474                         1.526
     44       S      2       6.000          6.765                        -0.765
     45       S      2       6.000          6.765                        -0.765
     46       Mo     1       6.000          4.473                         1.527
     47       S      2       6.000          6.762                        -0.762
     48       S      2       6.000          6.762                        -0.762
     49       Mo     1       6.000          4.473                         1.527
     50       S      2       6.000          6.767                        -0.767
     51       S      2       6.000          6.767                        -0.767
     52       Mo     1       6.000          4.473                         1.527
     53       S      2       6.000          6.759                        -0.759
     54       S      2       6.000          6.759                        -0.759
     55       Mo     1       6.000          4.473                         1.527
     56       S      2       6.000          6.765                        -0.765
     57       S      2       6.000          6.765                        -0.765
     58       Mo     1       6.000          4.473                         1.527
     59       S      2       6.000          6.768                        -0.768
     60       S      2       6.000          6.768                        -0.768
     61       Mo     1       6.000          4.474                         1.526
     62       S      2       6.000          6.764                        -0.764
     63       S      2       6.000          6.764                        -0.764
     64       Mo     1       6.000          4.474                         1.526
     65       S      2       6.000          6.766                        -0.766
     66       S      2       6.000          6.766                        -0.766
     67       Mo     1       6.000          4.473                         1.527
     68       S      2       6.000          6.760                        -0.760
     69       S      2       6.000          6.760                        -0.760
     70       Mo     1       6.000          4.473                         1.527
     71       S      2       6.000          6.761                        -0.761
     72       S      2       6.000          6.761                        -0.761
     73       Mo     1       6.000          4.474                         1.526
     74       S      2       6.000          6.769                        -0.769
     75       S      2       6.000          6.769                        -0.769
     76       Mo     1       6.000          4.474                         1.526
     77       S      2       6.000          6.762                        -0.762
     78       S      2       6.000          6.762                        -0.762
     79       Mo     1       6.000          4.474                         1.526
     80       S      2       6.000          6.766                        -0.766
     81       S      2       6.000          6.766                        -0.766
     82       Mo     1       6.000          4.474                         1.526
     83       S      2       6.000          6.758                        -0.758
     84       S      2       6.000          6.758                        -0.758
     85       Mo     1       6.000          4.474                         1.526
     86       S      2       6.000          6.764                        -0.764
     87       S      2       6.000          6.764                        -0.764
     88       Mo     1       6.000          4.473                         1.527
     89       S      2       6.000          6.762                        -0.762
     90       S      2       6.000          6.762                        -0.762
     91       Mo     1       6.000          4.474                         1.526
     92       S      2       6.000          6.765                        -0.765
     93       S      2       6.000          6.765                        -0.765
     94       Mo     1       6.000          4.474                         1.526
     95       S      2       6.000          6.761                        -0.761
     96       S      2       6.000          6.761                        -0.761
     97       Mo     1       6.000          4.473                         1.527
     98       S      2       6.000          6.762                        -0.762
     99       S      2       6.000          6.762                        -0.762
    100       Mo     1       6.000          4.474                         1.526
    101       S      2       6.000          6.767                        -0.767
    102       S      2       6.000          6.767                        -0.767
    103       Mo     1       6.000          4.473                         1.527
    104       S      2       6.000          6.759                        -0.759
    105       S      2       6.000          6.759                        -0.759
    106       Mo     1       6.000          4.473                         1.527
    107       S      2       6.000          6.761                        -0.761
    108       S      2       6.000          6.761                        -0.761

  Total Charge                                                            0.000
 !-----------------------------------------------------------------------------!

 ENERGY| Total FORCE_EVAL ( QS ) energy [a.u.]:             -951.733678299747680

 -------------------------------------------------------------------------------
 -                                                                             -
 -                                DBCSR STATISTICS                             -
 -                                                                             -
 -------------------------------------------------------------------------------
 COUNTER                                    TOTAL       BLAS       SMM       ACC
 flops     7 x     4 x     4                16128       0.0%    100.0%      0.0%
 flops     4 x     4 x   138                26496       0.0%    100.0%      0.0%
 flops     8 x     4 x     4                36864       0.0%    100.0%      0.0%
 flops     7 x    32 x     4               645120       0.0%    100.0%      0.0%
 flops     7 x     4 x    32               645120       0.0%    100.0%      0.0%
 flops     4 x    32 x   138              1059840       0.0%    100.0%      0.0%
 flops    32 x     4 x   138              1059840       0.0%    100.0%      0.0%
 flops     8 x    32 x     4              1474560       0.0%    100.0%      0.0%
 flops     8 x     4 x    32              1474560       0.0%    100.0%      0.0%
 flops    32 x    32 x    32              4390912       0.0%    100.0%      0.0%
 flops    32 x    32 x    36              4939776       0.0%    100.0%      0.0%
 flops    32 x    36 x    32              4939776       0.0%    100.0%      0.0%
 flops    36 x    32 x    32              4939776       0.0%    100.0%      0.0%
 flops    32 x    36 x    36              5557248       0.0%    100.0%      0.0%
 flops    36 x    32 x    36              5557248       0.0%    100.0%      0.0%
 flops    36 x    36 x    32              5557248       0.0%    100.0%      0.0%
 flops    36 x    36 x    36              6251904       0.0%    100.0%      0.0%
 flops     7 x     4 x     7             10668672       0.0%    100.0%      0.0%
 flops     7 x     4 x     8             24385536       0.0%    100.0%      0.0%
 flops     8 x     4 x     7             24385536       0.0%    100.0%      0.0%
 flops     7 x     7 x    32             27151488       0.0%    100.0%      0.0%
 flops     7 x     7 x    36             30545424       0.0%    100.0%      0.0%
 flops    32 x    32 x    64             35127296       0.0%    100.0%      0.0%
 flops    32 x    64 x    32             35127296       0.0%    100.0%      0.0%
 flops    64 x    32 x    32             35127296       0.0%    100.0%      0.0%
 flops    32 x    36 x    64             39518208       0.0%    100.0%      0.0%
 flops    32 x    64 x    36             39518208       0.0%    100.0%      0.0%
 flops    36 x    32 x    64             39518208       0.0%    100.0%      0.0%
 flops    36 x    64 x    32             39518208       0.0%    100.0%      0.0%
 flops    64 x    32 x    36             39518208       0.0%    100.0%      0.0%
 flops    64 x    36 x    32             39518208       0.0%    100.0%      0.0%
 flops    36 x    36 x    64             44457984       0.0%    100.0%      0.0%
 flops    36 x    64 x    36             44457984       0.0%    100.0%      0.0%
 flops    64 x    36 x    36             44457984       0.0%    100.0%      0.0%
 flops    32 x    36 x   138             53415936       0.0%    100.0%      0.0%
 flops    36 x    32 x   138             53415936       0.0%    100.0%      0.0%
 flops     8 x     4 x     8             55738368       0.0%    100.0%      0.0%
 flops     7 x    32 x    32             56770560       0.0%    100.0%      0.0%
 flops    36 x    36 x   138             60092928       0.0%    100.0%      0.0%
 flops     7 x     8 x    32             60383232       0.0%    100.0%      0.0%
 flops     8 x     7 x    32             60383232       0.0%    100.0%      0.0%
 flops   138 x    32 x    32             64438272       0.0%    100.0%      0.0%
 flops     7 x     8 x    36             67931136       0.0%    100.0%      0.0%
 flops     8 x     7 x    36             67931136       0.0%    100.0%      0.0%
 flops   138 x    32 x    36             72493056       0.0%    100.0%      0.0%
 flops   138 x    36 x    32             72493056       0.0%    100.0%      0.0%
 flops   138 x    36 x    36             81554688       0.0%    100.0%      0.0%
 flops     8 x    32 x    32            129761280       0.0%    100.0%      0.0%
 flops     8 x     8 x    32            139935744       0.0%    100.0%      0.0%
 flops    32 x    32 x   138            140746752       0.0%    100.0%      0.0%
 flops     8 x     8 x    36            157427712       0.0%    100.0%      0.0%
 flops     7 x     7 x    64            217211904       0.0%    100.0%      0.0%
 flops    64 x    64 x    32            281018368       0.0%    100.0%      0.0%
 flops    32 x    64 x    64            281018368       0.0%    100.0%      0.0%
 flops    64 x    32 x    64            281018368       0.0%    100.0%      0.0%
 flops   138 x    32 x   138            307141632       0.0%    100.0%      0.0%
 flops    64 x    64 x    36            316145664       0.0%    100.0%      0.0%
 flops    36 x    64 x    64            316145664       0.0%    100.0%      0.0%
 flops    64 x    36 x    64            316145664       0.0%    100.0%      0.0%
 flops   138 x    36 x   138            345534336       0.0%    100.0%      0.0%
 flops    32 x    64 x   138            379846656       0.0%    100.0%      0.0%
 flops    64 x    32 x   138            379846656       0.0%    100.0%      0.0%
 flops    36 x    64 x   138            427327488       0.0%    100.0%      0.0%
 flops    64 x    36 x   138            427327488       0.0%    100.0%      0.0%
 flops     7 x     8 x    64            483065856       0.0%    100.0%      0.0%
 flops     8 x     7 x    64            483065856       0.0%    100.0%      0.0%
 flops   138 x    64 x    32            515506176       0.0%    100.0%      0.0%
 flops   138 x    32 x    64            515506176       0.0%    100.0%      0.0%
 flops   138 x    64 x    36            579944448       0.0%    100.0%      0.0%
 flops   138 x    36 x    64            579944448       0.0%    100.0%      0.0%
 flops     7 x    32 x     7            853493760       0.0%    100.0%      0.0%
 flops     8 x     8 x    64           1119485952       0.0%    100.0%      0.0%
 flops     7 x    32 x     8           1950842880       0.0%    100.0%      0.0%
 flops     8 x    32 x     7           1950842880       0.0%    100.0%      0.0%
 flops    64 x    64 x    64           2248146944       0.0%    100.0%      0.0%
 flops   138 x    64 x   138           2457133056       0.0%    100.0%      0.0%
 flops    64 x    64 x   138           3038773248       0.0%    100.0%      0.0%
 flops   138 x    64 x    64           4124049408       0.0%    100.0%      0.0%
 flops     8 x    32 x     8           4459069440       0.0%    100.0%      0.0%
 flops inhomo. stacks                           0       0.0%      0.0%      0.0%
 flops total                        31.671086E+09       0.0%    100.0%      0.0%
 flops max/rank                      1.091639E+09       0.0%    100.0%      0.0%
 matmuls inhomo. stacks                         0       0.0%      0.0%      0.0%
 matmuls total                            3198384       0.0%    100.0%      0.0%
 number of processed stacks                 63564       0.0%    100.0%      0.0%
 average stack size                                     0.0      50.3       0.0
 marketing flops                    34.941030E+09
 -------------------------------------------------------------------------------
 # multiplications                            178
 max memory usage/rank             291.147776E+06
 # max total images/rank                        1
 # max 3D layers                                1
 # MPI messages exchanged                   64080
 MPI messages size (bytes):
  total size                         3.125792E+09
  min size                           0.000000E+00
  max size                         152.352000E+03
  average size                      48.779531E+03
 MPI breakdown and total messages size (bytes):
             size <=      128                 510                        0
       128 < size <=     8192                 870                  7127040
      8192 < size <=    32768               30300                719717120
     32768 < size <=   131072               27360               1631093760
    131072 < size <=  4194304                5040                767854080
   4194304 < size <= 16777216                   0                        0
  16777216 < size                               0                        0
 -------------------------------------------------------------------------------
 -                                                                             -
 -                      DBCSR MESSAGE PASSING PERFORMANCE                      -
 -                                                                             -
 -------------------------------------------------------------------------------
 ROUTINE             CALLS      AVE VOLUME [Bytes]
 MP_Bcast               80                     12.
 MP_Allreduce         1079                     11.
 MP_Alltoall           573                  13278.
 MP_ISend             4268                  23477.
 MP_IRecv             4268                  22263.
 -------------------------------------------------------------------------------

 -------------------------------------------------------------------------------
 -                                                                             -
 -                                GRID STATISTICS                              -
 -                                                                             -
 -------------------------------------------------------------------------------
 LP    KERNEL             BACKEND                              COUNT     PERCENT
 1     collocate general  REF                                 359424      31.76%
 2     collocate general  REF                                 192672      17.02%
 1     integrate general  REF                                 179712      15.88%
 0     collocate general  REF                                 156600      13.84%
 2     integrate general  REF                                  96336       8.51%
 0     integrate general  REF                                  78300       6.92%
 3     collocate general  REF                                  44064       3.89%
 3     integrate general  REF                                  22032       1.95%
 4     collocate general  REF                                   1728       0.15%
 4     integrate general  REF                                    864       0.08%
 -------------------------------------------------------------------------------

 MEMORY| Estimated peak process memory [MiB]                                 282

 -------------------------------------------------------------------------------
 ----                             MULTIGRID INFO                            ----
 -------------------------------------------------------------------------------
 count for grid        1:          11232          cutoff [a.u.]          150.00
 count for grid        2:          84816          cutoff [a.u.]           50.00
 count for grid        3:          67680          cutoff [a.u.]           16.67
 count for grid        4:              0          cutoff [a.u.]            5.56
 total gridlevel count  :         163728

 -------------------------------------------------------------------------------
 -                                                                             -
 -                         MESSAGE PASSING PERFORMANCE                         -
 -                                                                             -
 -------------------------------------------------------------------------------

 ROUTINE             CALLS      AVE VOLUME [Bytes]
 MP_Group                4
 MP_Bcast              692                 218574.
 MP_Allreduce         1306                    582.
 MP_Sync                62
 MP_Alltoall            91                2162134.
 MP_ISendRecv         3465                 184953.
 MP_Wait              3465
 MP_Recv                10                 211968.
 -------------------------------------------------------------------------------


 -------------------------------------------------------------------------------
 -                                                                             -
 -                           R E F E R E N C E S                               -
 -                                                                             -
 -------------------------------------------------------------------------------
 
 CP2K version 10.0 (Development Version), the CP2K developers group (2022).
 CP2K is freely available from https://www.cp2k.org/ .

 Kuehne,Thomas D.; Iannuzzi,Marcella; Del Ben,Mauro;
 Rybkin,Vladimir V.; Seewald,Patrick; Stein,Frederick; Laino,Teodoro;
 Khaliullin,Rustam Z.; Schuett,Ole; Schiffmann,Florian; Golze,Dorothea;
 Wilhelm,Jan; Chulkov,Sergey; Bani-Hashemian,Mohammad Hossein;
 Weber,Valery; Borstnik,Urban; Taillefumier,Mathieu;
 Jakobovits,Alice Shoshana; Lazzaro,Alfio; Pabst,Hans; Mueller,Tiziano;
 Schade,Robert; Guidon,Manuel; Andermatt,Samuel; Holmberg,Nico;
 Schenter,Gregory K.; Hehn,Anna; Bussy,Augustin; Belleflamme,Fabian;
 Tabacchi,Gloria; Gloess,Andreas; Lass,Michael; Bethune,Iain;
 Mundy,Christopher J.; Plessl,Christian; Watkins,Matt;
 VandeVondele,Joost; Krack,Matthias; Hutter,Juerg. 
 The Journal of Chemical Physics, 152 (19), (2020). 
 CP2K: An electronic structure and molecular dynamics software package -
 Quickstep: Efficient and accurate electronic structure calculations.
 https://doi.org/10.1063/5.0007045

 Schuett, Ole; Messmer, Peter; Hutter, Juerg; VandeVondele, Joost. 
 Electronic Structure Calculations on Graphics Processing Units, John
 Wiley & Sons, Ltd, 173-190 (2016). 
 GPU-Accelerated Sparse Matrix-Matrix Multiplication for
 Linear Scaling Density Functional Theory.
 https://doi.org/10.1002/9781118670712.ch8

 Heinecke, A; Henry, G; Hutchinson, M; Pabst, H. 
 Proceedings of Intl. Supercomputing Conference, 981-991 (2016). 
 LIBXSMM: Accelerating Small Matrix Multiplications
 by Runtime Code Generation.
 https://doi.org/10.1109/SC.2016.83

 Borstnik, U; VandeVondele, J; Weber, V; Hutter, J. 
 PARALLEL COMPUTING, 40 (5-6), 47-58 (2014). 
 Sparse matrix multiplication: The distributed block-compressed sparse
 row library.
 https://doi.org/10.1016/j.parco.2014.03.012

 Hutter, J; Iannuzzi, M; Schiffmann, F; VandeVondele, J. 
 WIREs Comput Mol Sci., 4 (1), 15-25 (2014). 
 CP2K: atomistic simulations of condensed matter systems.
 https://doi.org/10.1002/wcms.1159

 Guidon, M; Hutter, J; VandeVondele, J. 
 JOURNAL OF CHEMICAL THEORY AND COMPUTATION, 5 (11), 3010-3021 (2009). 
 Robust Periodic Hartree-Fock Exchange for Large-Scale Simulations Using
 Gaussian Basis Sets.
 https://doi.org/10.1021/ct900494g

 Guidon, M; Schiffmann, F; Hutter, J; VandeVondele, J. 
 JOURNAL OF CHEMICAL PHYSICS, 128 (21), 214104 (2008). 
 Ab initio molecular dynamics using hybrid density functionals.
 https://doi.org/10.1063/1.2931945

 Krack, M. 
 THEORETICAL CHEMISTRY ACCOUNTS, 114 (1-3), 145-152 (2005). 
 Pseudopotentials for H to Kr optimized for gradient-corrected
 exchange-correlation functionals.
 https://doi.org/10.1007/s00214-005-0655-y

 VandeVondele, J; Krack, M; Mohamed, F; Parrinello, M; Chassaing, T;
 Hutter, J. COMPUTER PHYSICS COMMUNICATIONS, 167 (2), 103-128 (2005). 
 QUICKSTEP: Fast and accurate density functional calculations using a
 mixed Gaussian and plane waves approach.
 https://doi.org/10.1016/j.cpc.2004.12.014

 Frigo, M; Johnson, SG. 
 PROCEEDINGS OF THE IEEE, 93 (2), 216-231 (2005). 
 The design and implementation of FFTW3.
 https://doi.org/10.1109/JPROC.2004.840301

 VandeVondele, J; Hutter, J. 
 JOURNAL OF CHEMICAL PHYSICS, 118 (10), 4365-4369 (2003). 
 An efficient orbital transformation method for electronic structure
 calculations.
 https://doi.org/10.1063/1.1543154

 Hartwigsen, C; Goedecker, S; Hutter, J. 
 PHYSICAL REVIEW B, 58 (7), 3641-3662 (1998). 
 Relativistic separable dual-space Gaussian pseudopotentials from H to Rn.
 https://doi.org/10.1103/PhysRevB.58.3641

 Lippert, G; Hutter, J; Parrinello, M. 
 MOLECULAR PHYSICS, 92 (3), 477-487 (1997). 
 A hybrid Gaussian and plane wave density functional scheme.
 https://doi.org/10.1080/002689797170220

 Goedecker, S; Teter, M; Hutter, J. 
 PHYSICAL REVIEW B, 54 (3), 1703-1710 (1996). 
 Separable dual-space Gaussian pseudopotentials.
 https://doi.org/10.1103/PhysRevB.54.1703


 -------------------------------------------------------------------------------
 -                                                                             -
 -                                T I M I N G                                  -
 -                                                                             -
 -------------------------------------------------------------------------------
 SUBROUTINE                       CALLS  ASD         SELF TIME        TOTAL TIME
                                MAXIMUM       AVERAGE  MAXIMUM  AVERAGE  MAXIMUM
 CP2K                                 1  1.0    0.008    0.037    9.391    9.392
 qs_energies                          1  2.0    0.000    0.000    9.269    9.270
 scf_env_do_scf                       1  3.0    0.000    0.000    8.438    8.438
 scf_env_do_scf_inner_loop           11  4.0    0.000    0.001    6.060    6.063
 qs_ks_update_qs_env                 12  5.0    0.000    0.000    5.083    5.085
 rebuild_ks_matrix                   11  6.0    0.000    0.000    5.081    5.083
 qs_ks_build_kohn_sham_matrix        11  7.0    0.002    0.002    5.081    5.083
 hfx_ks_matrix                       11  8.0    0.000    0.001    3.533    3.537
 integrate_four_center               11  9.0    0.042    0.413    3.532    3.536
 qs_rho_update_rho                   12  5.0    0.000    0.000    3.142    3.144
 calculate_rho_elec                  12  6.0    0.004    0.005    3.142    3.144
 mp_waitall_1                     14857 13.3    2.264    2.949    2.264    2.949
 rs_pw_transfer                      75  8.9    0.001    0.002    2.123    2.793
 integrate_four_center_main          11 10.0    0.003    0.004    2.450    2.589
 integrate_four_center_bin          748 11.0    2.447    2.587    2.447    2.587
 init_scf_loop                        1  4.0    0.000    0.000    2.374    2.375
 density_rs2pw                       12  7.0    0.000    0.001    1.678    2.324
 rs_pw_transfer_RS2PW_150            14  8.8    0.094    0.121    1.387    2.097
 grid_collocate_task_list            12  7.0    1.451    2.054    1.451    2.054
 sum_up_and_integrate                 6  8.0    0.000    0.000    1.142    1.428
 integrate_v_rspace                   6  9.0    0.000    0.001    1.142    1.428
 dbcsr_multiply_generic             178  9.8    0.005    0.006    0.730    1.042
 grid_integrate_task_list             6 10.0    0.660    0.946    0.660    0.946
 mp_sum_l                          1197  8.4    0.366    0.692    0.366    0.692
 potential_pw2rs                      6 10.0    0.000    0.000    0.481    0.484
 mp_bcast_im                        339  7.2    0.413    0.424    0.413    0.424
 qs_scf_new_mos                      11  5.0    0.000    0.000    0.405    0.408
 qs_scf_loop_do_ot                   11  6.0    0.000    0.000    0.405    0.408
 rs_pw_transfer_PW2RS_150             7 11.4    0.046    0.058    0.362    0.376
 ot_scf_mini                         11  7.0    0.000    0.000    0.370    0.374
 qs_energies_init_hamiltonians        1  3.0    0.000    0.000    0.349    0.349
 init_scf_run                         1  3.0    0.000    0.000    0.334    0.334
 scf_env_initial_rho_setup            1  4.0    0.000    0.001    0.334    0.334
 pw_transfer                        113  8.8    0.007    0.010    0.317    0.325
 multiply_cannon                    178 10.8    0.010    0.011    0.286    0.317
 fft_wrap_pw1pw2                     91  9.8    0.001    0.001    0.304    0.311
 multiply_cannon_loop               178 11.8    0.005    0.005    0.257    0.287
 rs_pw_transfer_RS2PW_50             12  9.0    0.014    0.017    0.214    0.270
 mp_sync                             62 10.7    0.163    0.270    0.163    0.270
 fft_wrap_pw1pw2_150                 37 10.4    0.023    0.027    0.243    0.256
 build_core_hamiltonian_matrix        1  4.0    0.000    0.000    0.179    0.251
 fft3d_ps                            91 11.8    0.090    0.109    0.234    0.241
 qs_env_update_s_mstruct              1  4.0    0.000    0.000    0.162    0.214
 calculate_rho_core                   1  5.0    0.002    0.003    0.156    0.208
 ot_mini                             11  8.0    0.000    0.000    0.202    0.207
 integrate_four_center_load          11 10.0    0.000    0.000    0.178    0.179
 hfx_load_balance                     1 11.0    0.000    0.001    0.178    0.179
 qs_ot_get_derivative                 6  9.0    0.000    0.000    0.173    0.177
 multiply_cannon_metrocomm3        1068 12.8    0.002    0.002    0.078    0.163
 build_core_ppnl                      1  5.0    0.119    0.157    0.119    0.157
 scf_post_calculation_gpw             1  3.0    0.000    0.000    0.149    0.150
 write_available_results              1  4.0    0.000    0.000    0.149    0.149
 write_mo_free_results                1  5.0    0.001    0.002    0.148    0.149
 mp_alltoall_z22v                    91 13.8    0.122    0.148    0.122    0.148
 qs_ot_get_derivative_taylor          6 10.0    0.000    0.000    0.120    0.125
 integrate_four_center_dist_KS       11 10.0    0.005    0.007    0.121    0.121
 multiply_cannon_metrocomm1        1068 12.8    0.002    0.002    0.066    0.121
 yz_to_x                             55 12.3    0.008    0.012    0.096    0.113
 integrate_four_center_getP          11 10.0    0.012    0.014    0.100    0.102
 rs_pw_transfer_PW2RS_50              6 12.0    0.009    0.012    0.086    0.101
 -------------------------------------------------------------------------------

 The number of warnings for this run is : 1
 
 -------------------------------------------------------------------------------
  **** **** ******  **  PROGRAM ENDED AT                 2022-05-26 21:54:25.859
 ***** ** ***  *** **   PROGRAM RAN ON                                   tcopt11
 **    ****   ******    PROGRAM RAN BY                                   wilhelm
 ***** **    ** ** **   PROGRAM PROCESS ID                                 89339
  **** **  *******  **  PROGRAM STOPPED IN /data/wilhelm/55_check_HFX/6_HFX_MoS2
                                           _PERIODIC_XYZ/02_height_06A_E_
