 DBCSR| CPU Multiplication driver                                           XSMM
 DBCSR| Multrec recursion limit                                              512
 DBCSR| Multiplication stack size                                           1000
 DBCSR| Maximum elements for images                                    UNLIMITED
 DBCSR| Multiplicative factor virtual images                                   1
 DBCSR| Use multiplication densification                                       T
 DBCSR| Multiplication size stacks                                             3
 DBCSR| Use memory pool for CPU allocation                                     F
 DBCSR| Number of 3D layers                                               SINGLE
 DBCSR| Use MPI memory allocation                                              F
 DBCSR| Use RMA algorithm                                                      F
 DBCSR| Use Communication thread                                               T
 DBCSR| Communication thread load                                             87
 DBCSR| MPI: My node id                                                        0
 DBCSR| MPI: Number of nodes                                                  36
 DBCSR| OMP: Current number of threads                                         1
 DBCSR| OMP: Max number of threads                                             1
 DBCSR| Split modifier for TAS multiplication algorithm                  1.0E+00


  **** **** ******  **  PROGRAM STARTED AT               2022-05-26 22:07:10.922
 ***** ** ***  *** **   PROGRAM STARTED ON                               tcopt11
 **    ****   ******    PROGRAM STARTED BY                               wilhelm
 ***** **    ** ** **   PROGRAM PROCESS ID                                 93464
  **** **  *******  **  PROGRAM STARTED IN /data/wilhelm/55_check_HFX/7_HFX_MoS2
                                           _PERIODIC_XY_FIXED_CODE/04_height_08A
                                           _E_

 CP2K| version string:                   CP2K version 10.0 (Development Version)
 CP2K| source code revision number:                                  git:3d29584
 CP2K| cp2kflags: omp libint fftw3 libxc parallel mpi3 scalapack xsmm           
 CP2K| is freely available from                            https://www.cp2k.org/
 CP2K| Program compiled at                      Sun 22 May 2022 01:43:22 PM CEST
 CP2K| Program compiled on                                               tcopt11
 CP2K| Program compiled for                                                local
 CP2K| Data directory path                    /data/wilhelm/52_fix_HFX/cp2k/data
 CP2K| Input file name                                                    HF.inp

 GLOBAL| Force Environment number                                              1
 GLOBAL| Basis set file name                            ../../BASIS_Mo_S_minimal
 GLOBAL| Potential file name                                      GTH_POTENTIALS
 GLOBAL| MM Potential file name                                     MM_POTENTIAL
 GLOBAL| Coordinate file name                                      __STD_INPUT__
 GLOBAL| Method name                                                        CP2K
 GLOBAL| Project name                                                       MoS2
 GLOBAL| Run type                                                         ENERGY
 GLOBAL| FFT library                                                       FFTW3
 GLOBAL| Diagonalization library                                       ScaLAPACK
 GLOBAL| Orthonormality check for eigenvectors                          DISABLED
 GLOBAL| Matrix multiplication library                                 ScaLAPACK
 GLOBAL| All-to-all communication in single precision                          F
 GLOBAL| FFTs using library dependent lengths                                  F
 GLOBAL| Grid backend                                                       AUTO
 GLOBAL| Global print level                                               MEDIUM
 GLOBAL| MPI I/O enabled                                                       T
 GLOBAL| Total number of message passing processes                            36
 GLOBAL| Number of threads for this process                                    1
 GLOBAL| This output is from process                                           0
 GLOBAL| Stack size for threads created by OpenMP (OMP_STACKSIZE)        default
 GLOBAL| CPU model name                          AMD EPYC 7401 24-Core Processor
 GLOBAL| CPUID                                                              1002

 MEMORY| system memory details [Kb]
 MEMORY|                        rank 0           min           max       average
 MEMORY| MemTotal            263969112     263969112     263969112     263969112
 MEMORY| MemFree             209478012     209478012     209478012     209478012
 MEMORY| Buffers               1123736       1123736       1123736       1123736
 MEMORY| Cached               45689840      45689840      45689840      45689840
 MEMORY| Slab                  2853688       2853688       2853688       2853688
 MEMORY| SReclaimable          2288392       2288392       2288392       2288392
 MEMORY| MemLikelyFree       258579980     258579980     258579980     258579980


 *** Fundamental physical constants (SI units) ***

 *** Literature: B. J. Mohr and B. N. Taylor,
 ***             CODATA recommended values of the fundamental physical
 ***             constants: 2006, Web Version 5.1
 ***             http://physics.nist.gov/constants

 Speed of light in vacuum [m/s]                             2.99792458000000E+08
 Magnetic constant or permeability of vacuum [N/A**2]       1.25663706143592E-06
 Electric constant or permittivity of vacuum [F/m]          8.85418781762039E-12
 Planck constant (h) [J*s]                                  6.62606896000000E-34
 Planck constant (h-bar) [J*s]                              1.05457162825177E-34
 Elementary charge [C]                                      1.60217648700000E-19
 Electron mass [kg]                                         9.10938215000000E-31
 Electron g factor [ ]                                     -2.00231930436220E+00
 Proton mass [kg]                                           1.67262163700000E-27
 Fine-structure constant                                    7.29735253760000E-03
 Rydberg constant [1/m]                                     1.09737315685270E+07
 Avogadro constant [1/mol]                                  6.02214179000000E+23
 Boltzmann constant [J/K]                                   1.38065040000000E-23
 Atomic mass unit [kg]                                      1.66053878200000E-27
 Bohr radius [m]                                            5.29177208590000E-11

 *** Conversion factors ***

 [u] -> [a.u.]                                              1.82288848426455E+03
 [Angstrom] -> [Bohr] = [a.u.]                              1.88972613288564E+00
 [a.u.] = [Bohr] -> [Angstrom]                              5.29177208590000E-01
 [a.u.] -> [s]                                              2.41888432650478E-17
 [a.u.] -> [fs]                                             2.41888432650478E-02
 [a.u.] -> [J]                                              4.35974393937059E-18
 [a.u.] -> [N]                                              8.23872205491840E-08
 [a.u.] -> [K]                                              3.15774647902944E+05
 [a.u.] -> [kJ/mol]                                         2.62549961709828E+03
 [a.u.] -> [kcal/mol]                                       6.27509468713739E+02
 [a.u.] -> [Pa]                                             2.94210107994716E+13
 [a.u.] -> [bar]                                            2.94210107994716E+08
 [a.u.] -> [atm]                                            2.90362800883016E+08
 [a.u.] -> [eV]                                             2.72113838565563E+01
 [a.u.] -> [Hz]                                             6.57968392072181E+15
 [a.u.] -> [1/cm] (wave numbers)                            2.19474631370540E+05
 [a.u./Bohr**2] -> [1/cm]                                   5.14048714338585E+03
 

 CELL_TOP| Volume [angstrom^3]:                                      2474.823476
 CELL_TOP| Vector a [angstrom    18.900     0.000     0.000   |a| =    18.900000
 CELL_TOP| Vector b [angstrom    -9.450    16.368     0.000   |b| =    18.900000
 CELL_TOP| Vector c [angstrom     0.000     0.000     8.000   |c| =     8.000000
 CELL_TOP| Angle (b,c), alpha [degree]:                                90.000000
 CELL_TOP| Angle (a,c), beta  [degree]:                                90.000000
 CELL_TOP| Angle (a,b), gamma [degree]:                               120.000000
 CELL_TOP| Numerically orthorhombic:                                          NO

 CELL_UC| Volume [angstrom^3]:                                         68.745097
 CELL_UC| Vector a [angstrom]     3.150     0.000     0.000   |a| =     3.150000
 CELL_UC| Vector b [angstrom]    -1.575     2.728     0.000   |b| =     3.150000
 CELL_UC| Vector c [angstrom]     0.000     0.000     8.000   |c| =     8.000000
 CELL_UC| Angle (b,c), alpha [degree]:                                 90.000000
 CELL_UC| Angle (a,c), beta  [degree]:                                 90.000000
 CELL_UC| Angle (a,b), gamma [degree]:                                120.000000
 CELL_UC| Numerically orthorhombic:                                           NO

 GENERATE|  Preliminary Number of Bonds generated:                             0
 GENERATE|  Achieved consistency in connectivity generation.

 CELL| Volume [angstrom^3]:                                          2474.823476
 CELL| Vector a [angstrom]:      18.900     0.000     0.000   |a| =    18.900000
 CELL| Vector b [angstrom]:      -9.450    16.368     0.000   |b| =    18.900000
 CELL| Vector c [angstrom]:       0.000     0.000     8.000   |c| =     8.000000
 CELL| Angle (b,c), alpha [degree]:                                    90.000000
 CELL| Angle (a,c), beta  [degree]:                                    90.000000
 CELL| Angle (a,b), gamma [degree]:                                   120.000000
 CELL| Numerically orthorhombic:                                              NO

 CELL_REF| Volume [angstrom^3]:                                      2474.823476
 CELL_REF| Vector a [angstrom    18.900     0.000     0.000   |a| =    18.900000
 CELL_REF| Vector b [angstrom    -9.450    16.368     0.000   |b| =    18.900000
 CELL_REF| Vector c [angstrom     0.000     0.000     8.000   |c| =     8.000000
 CELL_REF| Angle (b,c), alpha [degree]:                                90.000000
 CELL_REF| Angle (a,c), beta  [degree]:                                90.000000
 CELL_REF| Angle (a,b), gamma [degree]:                               120.000000
 CELL_REF| Numerically orthorhombic:                                          NO

 *******************************************************************************
 *******************************************************************************
 **                                                                           **
 **     #####                         ##              ##                      **
 **    ##   ##            ##          ##              ##                      **
 **   ##     ##                       ##            ######                    **
 **   ##     ##  ##   ##  ##   #####  ##  ##   ####   ##    #####    #####    **
 **   ##     ##  ##   ##  ##  ##      ## ##   ##      ##   ##   ##  ##   ##   **
 **   ##  ## ##  ##   ##  ##  ##      ####     ###    ##   ######   ######    **
 **    ##  ###   ##   ##  ##  ##      ## ##      ##   ##   ##       ##        **
 **     #######   #####   ##   #####  ##  ##  ####    ##    #####   ##        **
 **           ##                                                    ##        **
 **                                                                           **
 **                                                ... make the atoms dance   **
 **                                                                           **
 **            Copyright (C) by CP2K developers group (2000-2022)             **
 **                      J. Chem. Phys. 152, 194103 (2020)                    **
 **                                                                           **
 *******************************************************************************

 DFT| Spin restricted Kohn-Sham (RKS) calculation                            RKS
 DFT| Multiplicity                                                             1
 DFT| Number of spin states                                                    1
 DFT| Charge                                                                   0
 DFT| Self-interaction correction (SIC)                                       NO
 DFT| Cutoffs: density                                              1.000000E-10
 DFT|          gradient                                             1.000000E-10
 DFT|          tau                                                  1.000000E-10
 DFT|          cutoff_smoothing_range                               0.000000E+00
 DFT| XC density smoothing                                                  NONE
 DFT| XC derivatives                                                          PW
 FUNCTIONAL| NO EXCHANGE-CORRELATION FUNCTIONAL USED.

 QS| Method:                                                                 GPW
 QS| Density plane wave grid type                        NON-SPHERICAL FULLSPACE
 QS| Number of grid levels:                                                    4
 QS| Density cutoff [a.u.]:                                                150.0
 QS| Multi grid cutoff [a.u.]: 1) grid level                               150.0
 QS|                           2) grid level                                50.0
 QS|                           3) grid level                                16.7
 QS|                           4) grid level                                 5.6
 QS| Grid level progression factor:                                          3.0
 QS| Relative density cutoff [a.u.]:                                        20.0
 QS| Interaction thresholds: eps_pgf_orb:                                1.0E-20
 QS|                         eps_filter_matrix:                          0.0E+00
 QS|                         eps_core_charge:                            1.0E-22
 QS|                         eps_rho_gspace:                             1.0E-20
 QS|                         eps_rho_rspace:                             1.0E-20
 QS|                         eps_gvg_rspace:                             1.0E-10
 QS|                         eps_ppl:                                    1.0E-02
 QS|                         eps_ppnl:                                   1.0E-12


 ATOMIC KIND INFORMATION

  1. Atomic kind: Mo                                    Number of atoms:      36

     Orbital Basis Set                                                   minimal

       Number of orbital shell sets:                                           3
       Number of orbital shells:                                               3
       Number of primitive Cartesian functions:                                3
       Number of Cartesian basis functions:                                    8
       Number of spherical basis functions:                                    7
       Norm type:                                                              2

       Normalised Cartesian orbitals:

                        Set   Shell   Orbital            Exponent    Coefficient

                          1       1    1s                0.400000       0.358472

                          2       1    1s                2.000000       1.198623

                          3       1    1dx2              1.000000       1.645923
                          3       1    1dxy              1.000000       2.850822
                          3       1    1dxz              1.000000       2.850822
                          3       1    1dy2              1.000000       1.645923
                          3       1    1dyz              1.000000       2.850822
                          3       1    1dz2              1.000000       1.645923

       Atomic covalent radius [Angstrom]:                                  1.300

       Atomic van der Waals radius [Angstrom]:                             1.670

     GTH Potential information for                                   GTH-PADE-q6

       Description:                       Goedecker-Teter-Hutter pseudopotential
                                           Goedecker et al., PRB 54, 1703 (1996)
                                          Hartwigsen et al., PRB 58, 3641 (1998)
                                                      Krack, TCA 114, 145 (2005)

       Gaussian exponent of the core charge distribution:               1.023330
       Electronic configuration (s p d ...):                           1   0   5

       Parameters of the local part of the GTH pseudopotential:

                          rloc        C1          C2          C3          C4
                        0.699000    7.995868

       Parameters of the non-local part of the GTH pseudopotential:

                   l      r(l)      h(i,j,l)

                   0    0.678126    1.289607   -0.386568
                                   -0.386568    0.998113
                   1    0.800771    0.301412   -0.313389
                                   -0.313389    0.741615
                   2    0.453384   -2.809708    3.007755
                                    3.007755   -6.820946

  2. Atomic kind: S                                     Number of atoms:      72

     Orbital Basis Set                                                   minimal

       Number of orbital shell sets:                                           4
       Number of orbital shells:                                               4
       Number of primitive Cartesian functions:                                4
       Number of Cartesian basis functions:                                    8
       Number of spherical basis functions:                                    8
       Norm type:                                                              2

       Normalised Cartesian orbitals:

                        Set   Shell   Orbital            Exponent    Coefficient

                          1       1    1s                0.400000       0.358472

                          2       1    1s                2.000000       1.198623

                          3       1    1px               0.300000       0.316477
                          3       1    1py               0.300000       0.316477
                          3       1    1pz               0.300000       0.316477

                          4       1    1px               0.800000       1.078456
                          4       1    1py               0.800000       1.078456
                          4       1    1pz               0.800000       1.078456

       Atomic covalent radius [Angstrom]:                                  1.020

       Atomic van der Waals radius [Angstrom]:                             1.800

     GTH Potential information for                                   GTH-PADE-q6

       Description:                       Goedecker-Teter-Hutter pseudopotential
                                           Goedecker et al., PRB 54, 1703 (1996)
                                          Hartwigsen et al., PRB 58, 3641 (1998)
                                                      Krack, TCA 114, 145 (2005)

       Gaussian exponent of the core charge distribution:               2.834467
       Electronic configuration (s p d ...):                               2   4

       Parameters of the local part of the GTH pseudopotential:

                          rloc        C1          C2          C3          C4
                        0.420000   -6.554492

       Parameters of the non-local part of the GTH pseudopotential:

                   l      r(l)      h(i,j,l)

                   0    0.361757    7.905303   -1.731881
                                   -1.731881    4.471698
                   1    0.405285    3.866579


 MOLECULE KIND INFORMATION


 All atoms are their own molecule, skipping detailed information


 TOTAL NUMBERS AND MAXIMUM NUMBERS

  Total number of            - Atomic kinds:                                   2
                             - Atoms:                                        108
                             - Shell sets:                                   396
                             - Shells:                                       396
                             - Primitive Cartesian functions:                396
                             - Cartesian basis functions:                    864
                             - Spherical basis functions:                    828

  Maximum angular momentum of- Orbital basis functions:                        2
                             - Local part of the GTH pseudopotential:          0
                             - Non-local part of the GTH pseudopotential:      4


 MODULE QUICKSTEP:  ATOMIC COORDINATES IN angstrom

 Atom  Kind  Element       X           Y           Z          Z(eff)       Mass
    1   1 Mo  42       0.000000    1.818650    3.075000       6.0000     95.9600
    2   2 S   16       0.000000    3.637310    1.488300       6.0000     32.0650
    3   2 S   16       0.000000    3.637310    4.661700       6.0000     32.0650
    4   1 Mo  42       3.150000    1.818650    3.075000       6.0000     95.9600
    5   2 S   16       3.150000    3.637310    1.488300       6.0000     32.0650
    6   2 S   16       3.150000    3.637310    4.661700       6.0000     32.0650
    7   1 Mo  42       6.300000    1.818650    3.075000       6.0000     95.9600
    8   2 S   16       6.300000    3.637310    1.488300       6.0000     32.0650
    9   2 S   16       6.300000    3.637310    4.661700       6.0000     32.0650
   10   1 Mo  42       9.450000    1.818650    3.075000       6.0000     95.9600
   11   2 S   16       9.450000    3.637310    1.488300       6.0000     32.0650
   12   2 S   16       9.450000    3.637310    4.661700       6.0000     32.0650
   13   1 Mo  42      12.600000    1.818650    3.075000       6.0000     95.9600
   14   2 S   16      12.600000    3.637310    1.488300       6.0000     32.0650
   15   2 S   16      12.600000    3.637310    4.661700       6.0000     32.0650
   16   1 Mo  42      15.750000    1.818650    3.075000       6.0000     95.9600
   17   2 S   16      15.750000    3.637310    1.488300       6.0000     32.0650
   18   2 S   16      15.750000    3.637310    4.661700       6.0000     32.0650
   19   1 Mo  42      -1.575000    4.546630    3.075000       6.0000     95.9600
   20   2 S   16      -1.575000    6.365290    1.488300       6.0000     32.0650
   21   2 S   16      -1.575000    6.365290    4.661700       6.0000     32.0650
   22   1 Mo  42       1.575000    4.546630    3.075000       6.0000     95.9600
   23   2 S   16       1.575000    6.365290    1.488300       6.0000     32.0650
   24   2 S   16       1.575000    6.365290    4.661700       6.0000     32.0650
   25   1 Mo  42       4.725000    4.546630    3.075000       6.0000     95.9600
   26   2 S   16       4.725000    6.365290    1.488300       6.0000     32.0650
   27   2 S   16       4.725000    6.365290    4.661700       6.0000     32.0650
   28   1 Mo  42       7.875000    4.546630    3.075000       6.0000     95.9600
   29   2 S   16       7.875000    6.365290    1.488300       6.0000     32.0650
   30   2 S   16       7.875000    6.365290    4.661700       6.0000     32.0650
   31   1 Mo  42      11.025000    4.546630    3.075000       6.0000     95.9600
   32   2 S   16      11.025000    6.365290    1.488300       6.0000     32.0650
   33   2 S   16      11.025000    6.365290    4.661700       6.0000     32.0650
   34   1 Mo  42      14.175000    4.546630    3.075000       6.0000     95.9600
   35   2 S   16      14.175000    6.365290    1.488300       6.0000     32.0650
   36   2 S   16      14.175000    6.365290    4.661700       6.0000     32.0650
   37   1 Mo  42      -3.150000    7.274610    3.075000       6.0000     95.9600
   38   2 S   16      -3.150000    9.093270    1.488300       6.0000     32.0650
   39   2 S   16      -3.150000    9.093270    4.661700       6.0000     32.0650
   40   1 Mo  42       0.000000    7.274610    3.075000       6.0000     95.9600
   41   2 S   16       0.000000    9.093270    1.488300       6.0000     32.0650
   42   2 S   16       0.000000    9.093270    4.661700       6.0000     32.0650
   43   1 Mo  42       3.150000    7.274610    3.075000       6.0000     95.9600
   44   2 S   16       3.150000    9.093270    1.488300       6.0000     32.0650
   45   2 S   16       3.150000    9.093270    4.661700       6.0000     32.0650
   46   1 Mo  42       6.300000    7.274610    3.075000       6.0000     95.9600
   47   2 S   16       6.300000    9.093270    1.488300       6.0000     32.0650
   48   2 S   16       6.300000    9.093270    4.661700       6.0000     32.0650
   49   1 Mo  42       9.450000    7.274610    3.075000       6.0000     95.9600
   50   2 S   16       9.450000    9.093270    1.488300       6.0000     32.0650
   51   2 S   16       9.450000    9.093270    4.661700       6.0000     32.0650
   52   1 Mo  42      12.600000    7.274610    3.075000       6.0000     95.9600
   53   2 S   16      12.600000    9.093270    1.488300       6.0000     32.0650
   54   2 S   16      12.600000    9.093270    4.661700       6.0000     32.0650
   55   1 Mo  42      -4.725000   10.002590    3.075000       6.0000     95.9600
   56   2 S   16      -4.725000   11.821250    1.488300       6.0000     32.0650
   57   2 S   16      -4.725000   11.821250    4.661700       6.0000     32.0650
   58   1 Mo  42      -1.575000   10.002590    3.075000       6.0000     95.9600
   59   2 S   16      -1.575000   11.821250    1.488300       6.0000     32.0650
   60   2 S   16      -1.575000   11.821250    4.661700       6.0000     32.0650
   61   1 Mo  42       1.575000   10.002590    3.075000       6.0000     95.9600
   62   2 S   16       1.575000   11.821250    1.488300       6.0000     32.0650
   63   2 S   16       1.575000   11.821250    4.661700       6.0000     32.0650
   64   1 Mo  42       4.725000   10.002590    3.075000       6.0000     95.9600
   65   2 S   16       4.725000   11.821250    1.488300       6.0000     32.0650
   66   2 S   16       4.725000   11.821250    4.661700       6.0000     32.0650
   67   1 Mo  42       7.875000   10.002590    3.075000       6.0000     95.9600
   68   2 S   16       7.875000   11.821250    1.488300       6.0000     32.0650
   69   2 S   16       7.875000   11.821250    4.661700       6.0000     32.0650
   70   1 Mo  42      11.025000   10.002590    3.075000       6.0000     95.9600
   71   2 S   16      11.025000   11.821250    1.488300       6.0000     32.0650
   72   2 S   16      11.025000   11.821250    4.661700       6.0000     32.0650
   73   1 Mo  42      -6.300000   12.730570    3.075000       6.0000     95.9600
   74   2 S   16      -6.300000   14.549230    1.488300       6.0000     32.0650
   75   2 S   16      -6.300000   14.549230    4.661700       6.0000     32.0650
   76   1 Mo  42      -3.150000   12.730570    3.075000       6.0000     95.9600
   77   2 S   16      -3.150000   14.549230    1.488300       6.0000     32.0650
   78   2 S   16      -3.150000   14.549230    4.661700       6.0000     32.0650
   79   1 Mo  42       0.000000   12.730570    3.075000       6.0000     95.9600
   80   2 S   16       0.000000   14.549230    1.488300       6.0000     32.0650
   81   2 S   16       0.000000   14.549230    4.661700       6.0000     32.0650
   82   1 Mo  42       3.150000   12.730570    3.075000       6.0000     95.9600
   83   2 S   16       3.150000   14.549230    1.488300       6.0000     32.0650
   84   2 S   16       3.150000   14.549230    4.661700       6.0000     32.0650
   85   1 Mo  42       6.300000   12.730570    3.075000       6.0000     95.9600
   86   2 S   16       6.300000   14.549230    1.488300       6.0000     32.0650
   87   2 S   16       6.300000   14.549230    4.661700       6.0000     32.0650
   88   1 Mo  42       9.450000   12.730570    3.075000       6.0000     95.9600
   89   2 S   16       9.450000   14.549230    1.488300       6.0000     32.0650
   90   2 S   16       9.450000   14.549230    4.661700       6.0000     32.0650
   91   1 Mo  42      -7.875000   15.458550    3.075000       6.0000     95.9600
   92   2 S   16      -7.875000   17.277210    1.488300       6.0000     32.0650
   93   2 S   16      -7.875000   17.277210    4.661700       6.0000     32.0650
   94   1 Mo  42      -4.725000   15.458550    3.075000       6.0000     95.9600
   95   2 S   16      -4.725000   17.277210    1.488300       6.0000     32.0650
   96   2 S   16      -4.725000   17.277210    4.661700       6.0000     32.0650
   97   1 Mo  42      -1.575000   15.458550    3.075000       6.0000     95.9600
   98   2 S   16      -1.575000   17.277210    1.488300       6.0000     32.0650
   99   2 S   16      -1.575000   17.277210    4.661700       6.0000     32.0650
  100   1 Mo  42       1.575000   15.458550    3.075000       6.0000     95.9600
  101   2 S   16       1.575000   17.277210    1.488300       6.0000     32.0650
  102   2 S   16       1.575000   17.277210    4.661700       6.0000     32.0650
  103   1 Mo  42       4.725000   15.458550    3.075000       6.0000     95.9600
  104   2 S   16       4.725000   17.277210    1.488300       6.0000     32.0650
  105   2 S   16       4.725000   17.277210    4.661700       6.0000     32.0650
  106   1 Mo  42       7.875000   15.458550    3.075000       6.0000     95.9600
  107   2 S   16       7.875000   17.277210    1.488300       6.0000     32.0650
  108   2 S   16       7.875000   17.277210    4.661700       6.0000     32.0650




 SCF PARAMETERS         Density guess:                                   RESTART
                        --------------------------------------------------------
                        max_scf:                                              40
                        max_scf_history:                                       0
                        max_diis:                                              4
                        --------------------------------------------------------
                        eps_scf:                                        1.00E-05
                        eps_scf_history:                                0.00E+00
                        eps_diis:                                       1.00E-01
                        eps_eigval:                                     1.00E-05
                        --------------------------------------------------------
                        level_shift [a.u.]:                             0.000000
                        --------------------------------------------------------
                        Outer loop SCF in use 
                        No variables optimised in outer loop
                        eps_scf                                         1.00E-05
                        max_scf                                               50
                        No outer loop optimization
                        step_size                                       5.00E-01

 PW_GRID| Information for grid number                                          1
 PW_GRID| Grid distributed over                                    36 processors
 PW_GRID| Real space group dimensions                                    36    1
 PW_GRID| the grid is blocked:                                                NO
 PW_GRID| Cutoff [a.u.]                                                    150.0
 PW_GRID| spherical cutoff:                                                   NO
 PW_GRID|   Bounds   1           -100      99                Points:         200
 PW_GRID|   Bounds   2           -100      99                Points:         200
 PW_GRID|   Bounds   3            -45      44                Points:          90
 PW_GRID| Volume element (a.u.^3)  0.4639E-02     Volume (a.u.^3)     16700.9368
 PW_GRID| Grid span                                                    FULLSPACE
 PW_GRID|   Distribution                         Average         Max         Min
 PW_GRID|   G-Vectors                           100000.0      100000      100000
 PW_GRID|   G-Rays                                 500.0         500         500
 PW_GRID|   Real Space Points                   100000.0      108000       90000

 PW_GRID| Information for grid number                                          2
 PW_GRID| Number of the reference grid                                         1
 PW_GRID| Grid distributed over                                    36 processors
 PW_GRID| Real space group dimensions                                    36    1
 PW_GRID| the grid is blocked:                                                NO
 PW_GRID| Cutoff [a.u.]                                                     50.0
 PW_GRID| spherical cutoff:                                                   NO
 PW_GRID|   Bounds   1            -60      59                Points:         120
 PW_GRID|   Bounds   2            -60      59                Points:         120
 PW_GRID|   Bounds   3            -27      26                Points:          54
 PW_GRID| Volume element (a.u.^3)  0.2148E-01     Volume (a.u.^3)     16700.9368
 PW_GRID| Grid span                                                    FULLSPACE
 PW_GRID|   Distribution                         Average         Max         Min
 PW_GRID|   G-Vectors                            21600.0       22200       20640
 PW_GRID|   G-Rays                                 180.0         185         172
 PW_GRID|   Real Space Points                    21600.0       25920       19440

 PW_GRID| Information for grid number                                          3
 PW_GRID| Number of the reference grid                                         1
 PW_GRID| Grid distributed over                                    36 processors
 PW_GRID| Real space group dimensions                                    36    1
 PW_GRID| the grid is blocked:                                                NO
 PW_GRID| Cutoff [a.u.]                                                     16.7
 PW_GRID| spherical cutoff:                                                   NO
 PW_GRID|   Bounds   1            -36      35                Points:          72
 PW_GRID|   Bounds   2            -36      35                Points:          72
 PW_GRID|   Bounds   3            -13      13                Points:          27
 PW_GRID| Volume element (a.u.^3)  0.1193         Volume (a.u.^3)     16700.9368
 PW_GRID| Grid span                                                    FULLSPACE
 PW_GRID|   Distribution                         Average         Max         Min
 PW_GRID|   G-Vectors                             3888.0        4392        3384
 PW_GRID|   G-Rays                                  54.0          61          47
 PW_GRID|   Real Space Points                     3888.0        3888        3888

 PW_GRID| Information for grid number                                          4
 PW_GRID| Number of the reference grid                                         1
 PW_GRID| Grid distributed over                                    36 processors
 PW_GRID| Real space group dimensions                                    36    1
 PW_GRID| the grid is blocked:                                                NO
 PW_GRID| Cutoff [a.u.]                                                      5.6
 PW_GRID| spherical cutoff:                                                   NO
 PW_GRID|   Bounds   1            -20      19                Points:          40
 PW_GRID|   Bounds   2            -20      19                Points:          40
 PW_GRID|   Bounds   3             -9       8                Points:          18
 PW_GRID| Volume element (a.u.^3)  0.5799         Volume (a.u.^3)     16700.9368
 PW_GRID| Grid span                                                    FULLSPACE
 PW_GRID|   Distribution                         Average         Max         Min
 PW_GRID|   G-Vectors                              800.0         960         720
 PW_GRID|   G-Rays                                  20.0          24          18
 PW_GRID|   Real Space Points                      800.0        1440         720

 POISSON| Solver                                                        PERIODIC
 POISSON| Periodicity                                                        XYZ

 RS_GRID| Information for grid number                                          1
 RS_GRID|   Bounds   1           -100      99                Points:         200
 RS_GRID|   Bounds   2           -100      99                Points:         200
 RS_GRID|   Bounds   3            -45      44                Points:          90
 RS_GRID| Real space fully replicated
 RS_GRID| Group size                                                           1

 RS_GRID| Information for grid number                                          2
 RS_GRID|   Bounds   1            -60      59                Points:         120
 RS_GRID|   Bounds   2            -60      59                Points:         120
 RS_GRID|   Bounds   3            -27      26                Points:          54
 RS_GRID| Real space fully replicated
 RS_GRID| Group size                                                           1

 RS_GRID| Information for grid number                                          3
 RS_GRID|   Bounds   1            -36      35                Points:          72
 RS_GRID|   Bounds   2            -36      35                Points:          72
 RS_GRID|   Bounds   3            -13      13                Points:          27
 RS_GRID| Real space fully replicated
 RS_GRID| Group size                                                           1

 RS_GRID| Information for grid number                                          4
 RS_GRID|   Bounds   1            -20      19                Points:          40
 RS_GRID|   Bounds   2            -20      19                Points:          40
 RS_GRID|   Bounds   3             -9       8                Points:          18
 RS_GRID| Real space fully replicated
 RS_GRID| Group size                                                           1

 *** WARNING in hfx_types.F:1969 :: Periodic Hartree Fock calculation      ***
 *** requested with use of a truncated or shortrange potential. The cutoff ***
 *** radius is larger than half the minimal cell dimension. This may lead  ***
 *** to unphysical total energies. Reduce the cutoff radius in order to    ***
 *** avoid possible problems.                                              ***


  HFX_INFO| Replica ID:                                                        1
  HFX_INFO| FRACTION:                                               1.0000000000
  HFX_INFO| Interaction Potential:                                     TRUNCATED
  HFX_INFO| Cutoff Radius [angstrom]:                               9.0000000000
  HFX_INFO| EPS_SCHWARZ:                                                 1.0E-06
  HFX_INFO| EPS_SCHWARZ_FORCES                                           1.0E-06
  HFX_INFO| EPS_STORAGE_SCALING:                                         1.0E-01
  HFX_INFO| NBINS:                                                            64
  HFX_INFO| BLOCK_SIZE:                                                        2
  HFX_INFO| NUMBER_OF_SHELLS:                                               AUTO
  HFX_INFO| Number of periodic shells considered:                             -1
  HFX_INFO| Number of periodic cells considered:                               7


 Number of electrons:                                                        648
 Number of occupied orbitals:                                                324
 Number of molecular orbitals:                                               324

 Number of orbital functions:                                                828
 Number of independent orbital functions:                                    828

 Extrapolation method: initial_guess


 SCF WAVEFUNCTION OPTIMIZATION

  ----------------------------------- OT ---------------------------------------
  Minimizer      : CG                  : conjugate gradient
  Preconditioner : FULL_SINGLE_INVERSE : inversion of 
                                         H + eS - 2*(Sc)(c^T*H*c+const)(Sc)^T
  Precond_solver : DEFAULT
  Line search    : 2PNT                : 2 energies, one gradient
  stepsize       :    0.08000000                  energy_gap     :    0.08000000
  eps_taylor     :   0.10000E-15                  max_taylor     :             4
  ----------------------------------- OT ---------------------------------------

  Step     Update method      Time    Convergence         Total energy    Change
  ------------------------------------------------------------------------------

  HFX_MEM_INFO| Est. max. program size before HFX [MiB]:                     226
  HFX_MEM_INFO| Number of cart. primitive ERI's calculated:            491832298
  HFX_MEM_INFO| Number of sph. ERI's calculated:                       292360609
  HFX_MEM_INFO| Number of sph. ERI's stored in-core:                    99459156
  HFX_MEM_INFO| Number of sph. ERI's stored on disk:                           0
  HFX_MEM_INFO| Number of sph. ERI's calculated on the fly:                    0
  HFX_MEM_INFO| Total memory consumption ERI's RAM [MiB]:                    103
  HFX_MEM_INFO| Whereof max-vals [MiB]:                                        7
  HFX_MEM_INFO| Total compression factor ERI's RAM:                         7.44
  HFX_MEM_INFO| Total memory consumption ERI's disk [MiB]:                     0
  HFX_MEM_INFO| Total compression factor ERI's disk:                        0.00
  HFX_MEM_INFO| Size of density/Fock matrix [MiB]:                             4
  HFX_MEM_INFO| Size of buffers [MiB]:                                         1
  HFX_MEM_INFO| Number of periodic image cells considered:                     7
  HFX_MEM_INFO| Est. max. program size after HFX  [MiB]:                     242

     1 OT CG       0.80E-01    1.7     0.00083557      -895.4030300160 -8.95E+02
     2 OT LS       0.18E+00    0.4                     -895.4146814057
     3 OT CG       0.18E+00    0.7     0.00013655      -895.4197878780 -1.68E-02
     4 OT LS       0.27E+00    0.4                     -895.4203759644
     5 OT CG       0.27E+00    0.7     0.00003971      -895.4204453132 -6.57E-04
     6 OT LS       0.25E+00    0.4                     -895.4204973060
     7 OT CG       0.25E+00    0.7     0.00001304      -895.4204976147 -5.23E-05
     8 OT LS       0.31E+00    0.4                     -895.4205044082
     9 OT CG       0.31E+00    0.7     0.00000410      -895.4205047032 -7.09E-06

  *** SCF run converged in     9 steps ***


  Electronic density on regular grids:       -648.0000000000       -0.0000000000
  Core density on regular grids:              648.0000000000        0.0000000000
  Total charge density on r-space grids:       -0.0000000000
  Total charge density g-space grids:          -0.0000000000

  Overlap energy of the core charge distribution:               0.00003919135878
  Self energy of the core charge distribution:              -2263.95339448397044
  Core Hamiltonian energy:                                    766.00992581558171
  Hartree energy:                                             836.42868757151552
  Exchange-correlation energy:                                  0.00000000000000
  Hartree-Fock Exchange energy:                              -233.90576279765006

  Total energy:                                              -895.42050470316462

  outer SCF iter =    1 RMS gradient =   0.41E-05 energy =       -895.4205047032
  outer SCF loop converged in   1 iterations or    9 steps


 !-----------------------------------------------------------------------------!
                     Mulliken Population Analysis

 #  Atom  Element  Kind  Atomic population                           Net charge
       1     Mo       1          2.709503                              3.290497
       2     S        2          7.640732                             -1.640732
       3     S        2          7.640748                             -1.640748
       4     Mo       1          2.710274                              3.289726
       5     S        2          7.651027                             -1.651027
       6     S        2          7.651018                             -1.651018
       7     Mo       1          2.709454                              3.290546
       8     S        2          7.637367                             -1.637367
       9     S        2          7.637368                             -1.637368
      10     Mo       1          2.710314                              3.289686
      11     S        2          7.644633                             -1.644633
      12     S        2          7.644627                             -1.644627
      13     Mo       1          2.710047                              3.289953
      14     S        2          7.648309                             -1.648309
      15     S        2          7.648305                             -1.648305
      16     Mo       1          2.710172                              3.289828
      17     S        2          7.654496                             -1.654496
      18     S        2          7.654457                             -1.654457
      19     Mo       1          2.710710                              3.289290
      20     S        2          7.653403                             -1.653403
      21     S        2          7.653398                             -1.653398
      22     Mo       1          2.710159                              3.289841
      23     S        2          7.643556                             -1.643556
      24     S        2          7.643558                             -1.643558
      25     Mo       1          2.710160                              3.289840
      26     S        2          7.645506                             -1.645506
      27     S        2          7.645512                             -1.645512
      28     Mo       1          2.709931                              3.290069
      29     S        2          7.642575                             -1.642575
      30     S        2          7.642568                             -1.642568
      31     Mo       1          2.710461                              3.289539
      32     S        2          7.641721                             -1.641721
      33     S        2          7.641723                             -1.641723
      34     Mo       1          2.710666                              3.289334
      35     S        2          7.642348                             -1.642348
      36     S        2          7.642372                             -1.642372
      37     Mo       1          2.709679                              3.290321
      38     S        2          7.638124                             -1.638124
      39     S        2          7.638109                             -1.638109
      40     Mo       1          2.710680                              3.289320
      41     S        2          7.643338                             -1.643338
      42     S        2          7.643343                             -1.643343
      43     Mo       1          2.710245                              3.289755
      44     S        2          7.647017                             -1.647017
      45     S        2          7.647011                             -1.647011
      46     Mo       1          2.710043                              3.289957
      47     S        2          7.643583                             -1.643583
      48     S        2          7.643594                             -1.643594
      49     Mo       1          2.710219                              3.289781
      50     S        2          7.649923                             -1.649923
      51     S        2          7.649913                             -1.649913
      52     Mo       1          2.709337                              3.290663
      53     S        2          7.639532                             -1.639532
      54     S        2          7.639530                             -1.639530
      55     Mo       1          2.710035                              3.289965
      56     S        2          7.646808                             -1.646808
      57     S        2          7.646818                             -1.646818
      58     Mo       1          2.709594                              3.290406
      59     S        2          7.650820                             -1.650820
      60     S        2          7.650822                             -1.650822
      61     Mo       1          2.710061                              3.289939
      62     S        2          7.646030                             -1.646030
      63     S        2          7.646033                             -1.646033
      64     Mo       1          2.710456                              3.289544
      65     S        2          7.648587                             -1.648587
      66     S        2          7.648582                             -1.648582
      67     Mo       1          2.710194                              3.289806
      68     S        2          7.641448                             -1.641448
      69     S        2          7.641454                             -1.641454
      70     Mo       1          2.710170                              3.289830
      71     S        2          7.642521                             -1.642521
      72     S        2          7.642512                             -1.642512
      73     Mo       1          2.710915                              3.289085
      74     S        2          7.651892                             -1.651892
      75     S        2          7.651889                             -1.651889
      76     Mo       1          2.710085                              3.289915
      77     S        2          7.643536                             -1.643536
      78     S        2          7.643535                             -1.643535
      79     Mo       1          2.710906                              3.289094
      80     S        2          7.648376                             -1.648376
      81     S        2          7.648381                             -1.648381
      82     Mo       1          2.710108                              3.289892
      83     S        2          7.638269                             -1.638269
      84     S        2          7.638268                             -1.638268
      85     Mo       1          2.710555                              3.289445
      86     S        2          7.645205                             -1.645205
      87     S        2          7.645207                             -1.645207
      88     Mo       1          2.709439                              3.290561
      89     S        2          7.642899                             -1.642899
      90     S        2          7.642898                             -1.642898
      91     Mo       1          2.710590                              3.289410
      92     S        2          7.647405                             -1.647405
      93     S        2          7.647404                             -1.647404
      94     Mo       1          2.710189                              3.289811
      95     S        2          7.642260                             -1.642260
      96     S        2          7.642264                             -1.642264
      97     Mo       1          2.709965                              3.290035
      98     S        2          7.643537                             -1.643537
      99     S        2          7.643537                             -1.643537
     100     Mo       1          2.710447                              3.289553
     101     S        2          7.649523                             -1.649523
     102     S        2          7.649528                             -1.649528
     103     Mo       1          2.709614                              3.290386
     104     S        2          7.639025                             -1.639025
     105     S        2          7.639024                             -1.639024
     106     Mo       1          2.710139                              3.289861
     107     S        2          7.641923                             -1.641923
     108     S        2          7.641919                             -1.641919
 # Total charge                            648.000000                 -0.000000

 !-----------------------------------------------------------------------------!

 !-----------------------------------------------------------------------------!
                           Hirshfeld Charges

  #Atom  Element  Kind  Ref Charge     Population                    Net charge
      1       Mo     1       6.000          4.450                         1.550
      2       S      2       6.000          6.770                        -0.770
      3       S      2       6.000          6.770                        -0.770
      4       Mo     1       6.000          4.451                         1.549
      5       S      2       6.000          6.781                        -0.781
      6       S      2       6.000          6.781                        -0.781
      7       Mo     1       6.000          4.450                         1.550
      8       S      2       6.000          6.767                        -0.767
      9       S      2       6.000          6.767                        -0.767
     10       Mo     1       6.000          4.450                         1.550
     11       S      2       6.000          6.775                        -0.775
     12       S      2       6.000          6.774                        -0.774
     13       Mo     1       6.000          4.450                         1.550
     14       S      2       6.000          6.778                        -0.778
     15       S      2       6.000          6.778                        -0.778
     16       Mo     1       6.000          4.450                         1.550
     17       S      2       6.000          6.785                        -0.785
     18       S      2       6.000          6.785                        -0.785
     19       Mo     1       6.000          4.451                         1.549
     20       S      2       6.000          6.784                        -0.784
     21       S      2       6.000          6.784                        -0.784
     22       Mo     1       6.000          4.450                         1.550
     23       S      2       6.000          6.773                        -0.773
     24       S      2       6.000          6.773                        -0.773
     25       Mo     1       6.000          4.450                         1.550
     26       S      2       6.000          6.775                        -0.775
     27       S      2       6.000          6.775                        -0.775
     28       Mo     1       6.000          4.450                         1.550
     29       S      2       6.000          6.772                        -0.772
     30       S      2       6.000          6.772                        -0.772
     31       Mo     1       6.000          4.451                         1.549
     32       S      2       6.000          6.771                        -0.771
     33       S      2       6.000          6.771                        -0.771
     34       Mo     1       6.000          4.452                         1.548
     35       S      2       6.000          6.772                        -0.772
     36       S      2       6.000          6.772                        -0.772
     37       Mo     1       6.000          4.450                         1.550
     38       S      2       6.000          6.768                        -0.768
     39       S      2       6.000          6.768                        -0.768
     40       Mo     1       6.000          4.451                         1.549
     41       S      2       6.000          6.773                        -0.773
     42       S      2       6.000          6.773                        -0.773
     43       Mo     1       6.000          4.451                         1.549
     44       S      2       6.000          6.777                        -0.777
     45       S      2       6.000          6.777                        -0.777
     46       Mo     1       6.000          4.450                         1.550
     47       S      2       6.000          6.773                        -0.773
     48       S      2       6.000          6.773                        -0.773
     49       Mo     1       6.000          4.450                         1.550
     50       S      2       6.000          6.780                        -0.780
     51       S      2       6.000          6.780                        -0.780
     52       Mo     1       6.000          4.449                         1.551
     53       S      2       6.000          6.769                        -0.769
     54       S      2       6.000          6.769                        -0.769
     55       Mo     1       6.000          4.450                         1.550
     56       S      2       6.000          6.777                        -0.777
     57       S      2       6.000          6.777                        -0.777
     58       Mo     1       6.000          4.450                         1.550
     59       S      2       6.000          6.781                        -0.781
     60       S      2       6.000          6.781                        -0.781
     61       Mo     1       6.000          4.450                         1.550
     62       S      2       6.000          6.776                        -0.776
     63       S      2       6.000          6.776                        -0.776
     64       Mo     1       6.000          4.451                         1.549
     65       S      2       6.000          6.779                        -0.779
     66       S      2       6.000          6.779                        -0.779
     67       Mo     1       6.000          4.450                         1.550
     68       S      2       6.000          6.771                        -0.771
     69       S      2       6.000          6.771                        -0.771
     70       Mo     1       6.000          4.450                         1.550
     71       S      2       6.000          6.772                        -0.772
     72       S      2       6.000          6.772                        -0.772
     73       Mo     1       6.000          4.451                         1.549
     74       S      2       6.000          6.782                        -0.782
     75       S      2       6.000          6.782                        -0.782
     76       Mo     1       6.000          4.451                         1.549
     77       S      2       6.000          6.773                        -0.773
     78       S      2       6.000          6.773                        -0.773
     79       Mo     1       6.000          4.451                         1.549
     80       S      2       6.000          6.779                        -0.779
     81       S      2       6.000          6.779                        -0.779
     82       Mo     1       6.000          4.451                         1.549
     83       S      2       6.000          6.768                        -0.768
     84       S      2       6.000          6.768                        -0.768
     85       Mo     1       6.000          4.451                         1.549
     86       S      2       6.000          6.775                        -0.775
     87       S      2       6.000          6.775                        -0.775
     88       Mo     1       6.000          4.449                         1.551
     89       S      2       6.000          6.773                        -0.773
     90       S      2       6.000          6.773                        -0.773
     91       Mo     1       6.000          4.451                         1.549
     92       S      2       6.000          6.777                        -0.777
     93       S      2       6.000          6.777                        -0.777
     94       Mo     1       6.000          4.451                         1.549
     95       S      2       6.000          6.772                        -0.772
     96       S      2       6.000          6.772                        -0.772
     97       Mo     1       6.000          4.450                         1.550
     98       S      2       6.000          6.773                        -0.773
     99       S      2       6.000          6.773                        -0.773
    100       Mo     1       6.000          4.451                         1.549
    101       S      2       6.000          6.780                        -0.780
    102       S      2       6.000          6.780                        -0.780
    103       Mo     1       6.000          4.450                         1.550
    104       S      2       6.000          6.769                        -0.769
    105       S      2       6.000          6.769                        -0.769
    106       Mo     1       6.000          4.450                         1.550
    107       S      2       6.000          6.772                        -0.772
    108       S      2       6.000          6.772                        -0.772

  Total Charge                                                           -0.000
 !-----------------------------------------------------------------------------!

 ENERGY| Total FORCE_EVAL ( QS ) energy [a.u.]:             -895.420504703164625

 -------------------------------------------------------------------------------
 -                                                                             -
 -                                DBCSR STATISTICS                             -
 -                                                                             -
 -------------------------------------------------------------------------------
 COUNTER                                    TOTAL       BLAS       SMM       ACC
 flops     7 x     4 x     4                16128       0.0%    100.0%      0.0%
 flops     4 x     4 x   138                26496       0.0%    100.0%      0.0%
 flops     8 x     4 x     4                36864       0.0%    100.0%      0.0%
 flops     7 x    32 x     4               645120       0.0%    100.0%      0.0%
 flops     7 x     4 x    32               645120       0.0%    100.0%      0.0%
 flops     4 x    32 x   138              1059840       0.0%    100.0%      0.0%
 flops    32 x     4 x   138              1059840       0.0%    100.0%      0.0%
 flops     8 x    32 x     4              1474560       0.0%    100.0%      0.0%
 flops     8 x     4 x    32              1474560       0.0%    100.0%      0.0%
 flops    32 x    32 x    32              1966080       0.0%    100.0%      0.0%
 flops    32 x    32 x    36              2211840       0.0%    100.0%      0.0%
 flops    32 x    36 x    32              2211840       0.0%    100.0%      0.0%
 flops    36 x    32 x    32              2211840       0.0%    100.0%      0.0%
 flops    32 x    36 x    36              2488320       0.0%    100.0%      0.0%
 flops    36 x    32 x    36              2488320       0.0%    100.0%      0.0%
 flops    36 x    36 x    32              2488320       0.0%    100.0%      0.0%
 flops    36 x    36 x    36              2799360       0.0%    100.0%      0.0%
 flops     7 x     4 x     7              9144576       0.0%    100.0%      0.0%
 flops    32 x    32 x    64             15728640       0.0%    100.0%      0.0%
 flops    32 x    64 x    32             15728640       0.0%    100.0%      0.0%
 flops    64 x    32 x    32             15728640       0.0%    100.0%      0.0%
 flops    32 x    36 x    64             17694720       0.0%    100.0%      0.0%
 flops    32 x    64 x    36             17694720       0.0%    100.0%      0.0%
 flops    36 x    32 x    64             17694720       0.0%    100.0%      0.0%
 flops    36 x    64 x    32             17694720       0.0%    100.0%      0.0%
 flops    64 x    32 x    36             17694720       0.0%    100.0%      0.0%
 flops    64 x    36 x    32             17694720       0.0%    100.0%      0.0%
 flops    36 x    36 x    64             19906560       0.0%    100.0%      0.0%
 flops    36 x    64 x    36             19906560       0.0%    100.0%      0.0%
 flops    64 x    36 x    36             19906560       0.0%    100.0%      0.0%
 flops     7 x     4 x     8             20901888       0.0%    100.0%      0.0%
 flops     8 x     4 x     7             20901888       0.0%    100.0%      0.0%
 flops     7 x     7 x    32             22974336       0.0%    100.0%      0.0%
 flops     7 x     7 x    36             25846128       0.0%    100.0%      0.0%
 flops    32 x    36 x   138             43877376       0.0%    100.0%      0.0%
 flops    36 x    32 x   138             43877376       0.0%    100.0%      0.0%
 flops     8 x     4 x     8             47775744       0.0%    100.0%      0.0%
 flops    36 x    36 x   138             49362048       0.0%    100.0%      0.0%
 flops     7 x     8 x    32             51093504       0.0%    100.0%      0.0%
 flops     8 x     7 x    32             51093504       0.0%    100.0%      0.0%
 flops   138 x    32 x    32             52568064       0.0%    100.0%      0.0%
 flops     7 x    32 x    32             56770560       0.0%    100.0%      0.0%
 flops     7 x     8 x    36             57480192       0.0%    100.0%      0.0%
 flops     8 x     7 x    36             57480192       0.0%    100.0%      0.0%
 flops   138 x    32 x    36             59139072       0.0%    100.0%      0.0%
 flops   138 x    36 x    32             59139072       0.0%    100.0%      0.0%
 flops   138 x    36 x    36             66531456       0.0%    100.0%      0.0%
 flops     8 x     8 x    32            118407168       0.0%    100.0%      0.0%
 flops    64 x    64 x    32            125829120       0.0%    100.0%      0.0%
 flops    32 x    64 x    64            125829120       0.0%    100.0%      0.0%
 flops    64 x    32 x    64            125829120       0.0%    100.0%      0.0%
 flops     8 x    32 x    32            129761280       0.0%    100.0%      0.0%
 flops    32 x    32 x   138            132268032       0.0%    100.0%      0.0%
 flops     8 x     8 x    36            133208064       0.0%    100.0%      0.0%
 flops    64 x    64 x    36            141557760       0.0%    100.0%      0.0%
 flops    36 x    64 x    64            141557760       0.0%    100.0%      0.0%
 flops    64 x    36 x    64            141557760       0.0%    100.0%      0.0%
 flops     7 x     7 x    64            183794688       0.0%    100.0%      0.0%
 flops   138 x    32 x   138            263264256       0.0%    100.0%      0.0%
 flops   138 x    36 x   138            296172288       0.0%    100.0%      0.0%
 flops    32 x    64 x   138            312016896       0.0%    100.0%      0.0%
 flops    64 x    32 x   138            312016896       0.0%    100.0%      0.0%
 flops    36 x    64 x   138            351019008       0.0%    100.0%      0.0%
 flops    64 x    36 x   138            351019008       0.0%    100.0%      0.0%
 flops     7 x     8 x    64            408748032       0.0%    100.0%      0.0%
 flops     8 x     7 x    64            408748032       0.0%    100.0%      0.0%
 flops   138 x    64 x    32            420544512       0.0%    100.0%      0.0%
 flops   138 x    32 x    64            420544512       0.0%    100.0%      0.0%
 flops   138 x    64 x    36            473112576       0.0%    100.0%      0.0%
 flops   138 x    36 x    64            473112576       0.0%    100.0%      0.0%
 flops     7 x    32 x     7            731566080       0.0%    100.0%      0.0%
 flops     8 x     8 x    64            947257344       0.0%    100.0%      0.0%
 flops    64 x    64 x    64           1006632960       0.0%    100.0%      0.0%
 flops     7 x    32 x     8           1672151040       0.0%    100.0%      0.0%
 flops     8 x    32 x     7           1672151040       0.0%    100.0%      0.0%
 flops   138 x    64 x   138           2106114048       0.0%    100.0%      0.0%
 flops    64 x    64 x   138           2496135168       0.0%    100.0%      0.0%
 flops   138 x    64 x    64           3364356096       0.0%    100.0%      0.0%
 flops     8 x    32 x     8           3822059520       0.0%    100.0%      0.0%
 flops inhomo. stacks                           0       0.0%      0.0%      0.0%
 flops total                        24.842677E+09       0.0%    100.0%      0.0%
 flops max/rank                    847.510608E+06       0.0%    100.0%      0.0%
 matmuls inhomo. stacks                         0       0.0%      0.0%      0.0%
 matmuls total                            2732040       0.0%    100.0%      0.0%
 number of processed stacks                 48012       0.0%    100.0%      0.0%
 average stack size                                     0.0      56.9       0.0
 marketing flops                    27.672510E+09
 -------------------------------------------------------------------------------
 # multiplications                            123
 max memory usage/rank             265.900032E+06
 # max total images/rank                        1
 # max 3D layers                                1
 # MPI messages exchanged                   44280
 MPI messages size (bytes):
  total size                         2.407704E+09
  min size                           0.000000E+00
  max size                         152.352000E+03
  average size                      54.374531E+03
 MPI breakdown and total messages size (bytes):
             size <=      128                 510                        0
       128 < size <=     8192                 465                  3809280
      8192 < size <=    32768               16125                382912640
     32768 < size <=   131072               22860               1362821760
    131072 < size <=  4194304                4320                658160640
   4194304 < size <= 16777216                   0                        0
  16777216 < size                               0                        0
 -------------------------------------------------------------------------------
 -                                                                             -
 -                      DBCSR MESSAGE PASSING PERFORMANCE                      -
 -                                                                             -
 -------------------------------------------------------------------------------
 ROUTINE             CALLS      AVE VOLUME [Bytes]
 MP_Bcast               80                     12.
 MP_Allreduce          800                     12.
 MP_Alltoall           449                  16127.
 MP_ISend             2948                  25885.
 MP_IRecv             2948                  24709.
 -------------------------------------------------------------------------------

 -------------------------------------------------------------------------------
 -                                                                             -
 -                                GRID STATISTICS                              -
 -                                                                             -
 -------------------------------------------------------------------------------
 LP    KERNEL             BACKEND                              COUNT     PERCENT
 1     collocate general  REF                                 153360      29.75%
 2     collocate general  REF                                  87840      17.04%
 0     collocate general  REF                                  77256      14.99%
 1     integrate general  REF                                  76680      14.88%
 2     integrate general  REF                                  43920       8.52%
 0     integrate general  REF                                  38628       7.49%
 3     collocate general  REF                                  23760       4.61%
 3     integrate general  REF                                  11880       2.30%
 4     collocate general  REF                                   1440       0.28%
 4     integrate general  REF                                    720       0.14%
 -------------------------------------------------------------------------------

 MEMORY| Estimated peak process memory [MiB]                                 257

 -------------------------------------------------------------------------------
 ----                             MULTIGRID INFO                            ----
 -------------------------------------------------------------------------------
 count for grid        1:           8100          cutoff [a.u.]          150.00
 count for grid        2:          40500          cutoff [a.u.]           50.00
 count for grid        3:          25344          cutoff [a.u.]           16.67
 count for grid        4:              0          cutoff [a.u.]            5.56
 total gridlevel count  :          73944

 -------------------------------------------------------------------------------
 -                                                                             -
 -                         MESSAGE PASSING PERFORMANCE                         -
 -                                                                             -
 -------------------------------------------------------------------------------

 ROUTINE             CALLS      AVE VOLUME [Bytes]
 MP_Group                4
 MP_Bcast              745                 203060.
 MP_Allreduce         1469                    671.
 MP_Sync                52
 MP_Alltoall            76                3026543.
 MP_ISendRecv         2905                 252002.
 MP_Wait              2905
 MP_Recv                10                 211968.
 -------------------------------------------------------------------------------


 -------------------------------------------------------------------------------
 -                                                                             -
 -                           R E F E R E N C E S                               -
 -                                                                             -
 -------------------------------------------------------------------------------
 
 CP2K version 10.0 (Development Version), the CP2K developers group (2022).
 CP2K is freely available from https://www.cp2k.org/ .

 Kuehne,Thomas D.; Iannuzzi,Marcella; Del Ben,Mauro;
 Rybkin,Vladimir V.; Seewald,Patrick; Stein,Frederick; Laino,Teodoro;
 Khaliullin,Rustam Z.; Schuett,Ole; Schiffmann,Florian; Golze,Dorothea;
 Wilhelm,Jan; Chulkov,Sergey; Bani-Hashemian,Mohammad Hossein;
 Weber,Valery; Borstnik,Urban; Taillefumier,Mathieu;
 Jakobovits,Alice Shoshana; Lazzaro,Alfio; Pabst,Hans; Mueller,Tiziano;
 Schade,Robert; Guidon,Manuel; Andermatt,Samuel; Holmberg,Nico;
 Schenter,Gregory K.; Hehn,Anna; Bussy,Augustin; Belleflamme,Fabian;
 Tabacchi,Gloria; Gloess,Andreas; Lass,Michael; Bethune,Iain;
 Mundy,Christopher J.; Plessl,Christian; Watkins,Matt;
 VandeVondele,Joost; Krack,Matthias; Hutter,Juerg. 
 The Journal of Chemical Physics, 152 (19), (2020). 
 CP2K: An electronic structure and molecular dynamics software package -
 Quickstep: Efficient and accurate electronic structure calculations.
 https://doi.org/10.1063/5.0007045

 Schuett, Ole; Messmer, Peter; Hutter, Juerg; VandeVondele, Joost. 
 Electronic Structure Calculations on Graphics Processing Units, John
 Wiley & Sons, Ltd, 173-190 (2016). 
 GPU-Accelerated Sparse Matrix-Matrix Multiplication for
 Linear Scaling Density Functional Theory.
 https://doi.org/10.1002/9781118670712.ch8

 Heinecke, A; Henry, G; Hutchinson, M; Pabst, H. 
 Proceedings of Intl. Supercomputing Conference, 981-991 (2016). 
 LIBXSMM: Accelerating Small Matrix Multiplications
 by Runtime Code Generation.
 https://doi.org/10.1109/SC.2016.83

 Borstnik, U; VandeVondele, J; Weber, V; Hutter, J. 
 PARALLEL COMPUTING, 40 (5-6), 47-58 (2014). 
 Sparse matrix multiplication: The distributed block-compressed sparse
 row library.
 https://doi.org/10.1016/j.parco.2014.03.012

 Hutter, J; Iannuzzi, M; Schiffmann, F; VandeVondele, J. 
 WIREs Comput Mol Sci., 4 (1), 15-25 (2014). 
 CP2K: atomistic simulations of condensed matter systems.
 https://doi.org/10.1002/wcms.1159

 Guidon, M; Hutter, J; VandeVondele, J. 
 JOURNAL OF CHEMICAL THEORY AND COMPUTATION, 5 (11), 3010-3021 (2009). 
 Robust Periodic Hartree-Fock Exchange for Large-Scale Simulations Using
 Gaussian Basis Sets.
 https://doi.org/10.1021/ct900494g

 Guidon, M; Schiffmann, F; Hutter, J; VandeVondele, J. 
 JOURNAL OF CHEMICAL PHYSICS, 128 (21), 214104 (2008). 
 Ab initio molecular dynamics using hybrid density functionals.
 https://doi.org/10.1063/1.2931945

 Krack, M. 
 THEORETICAL CHEMISTRY ACCOUNTS, 114 (1-3), 145-152 (2005). 
 Pseudopotentials for H to Kr optimized for gradient-corrected
 exchange-correlation functionals.
 https://doi.org/10.1007/s00214-005-0655-y

 VandeVondele, J; Krack, M; Mohamed, F; Parrinello, M; Chassaing, T;
 Hutter, J. COMPUTER PHYSICS COMMUNICATIONS, 167 (2), 103-128 (2005). 
 QUICKSTEP: Fast and accurate density functional calculations using a
 mixed Gaussian and plane waves approach.
 https://doi.org/10.1016/j.cpc.2004.12.014

 Frigo, M; Johnson, SG. 
 PROCEEDINGS OF THE IEEE, 93 (2), 216-231 (2005). 
 The design and implementation of FFTW3.
 https://doi.org/10.1109/JPROC.2004.840301

 VandeVondele, J; Hutter, J. 
 JOURNAL OF CHEMICAL PHYSICS, 118 (10), 4365-4369 (2003). 
 An efficient orbital transformation method for electronic structure
 calculations.
 https://doi.org/10.1063/1.1543154

 Hartwigsen, C; Goedecker, S; Hutter, J. 
 PHYSICAL REVIEW B, 58 (7), 3641-3662 (1998). 
 Relativistic separable dual-space Gaussian pseudopotentials from H to Rn.
 https://doi.org/10.1103/PhysRevB.58.3641

 Lippert, G; Hutter, J; Parrinello, M. 
 MOLECULAR PHYSICS, 92 (3), 477-487 (1997). 
 A hybrid Gaussian and plane wave density functional scheme.
 https://doi.org/10.1080/002689797170220

 Goedecker, S; Teter, M; Hutter, J. 
 PHYSICAL REVIEW B, 54 (3), 1703-1710 (1996). 
 Separable dual-space Gaussian pseudopotentials.
 https://doi.org/10.1103/PhysRevB.54.1703


 -------------------------------------------------------------------------------
 -                                                                             -
 -                                T I M I N G                                  -
 -                                                                             -
 -------------------------------------------------------------------------------
 SUBROUTINE                       CALLS  ASD         SELF TIME        TOTAL TIME
                                MAXIMUM       AVERAGE  MAXIMUM  AVERAGE  MAXIMUM
 CP2K                                 1  1.0    0.008    0.031    7.270    7.271
 qs_energies                          1  2.0    0.000    0.000    7.135    7.135
 scf_env_do_scf                       1  3.0    0.000    0.000    6.404    6.404
 scf_env_do_scf_inner_loop            9  4.0    0.000    0.001    4.721    4.724
 qs_ks_update_qs_env                 10  5.0    0.000    0.000    3.740    3.741
 rebuild_ks_matrix                    9  6.0    0.000    0.000    3.737    3.739
 qs_ks_build_kohn_sham_matrix         9  7.0    0.002    0.002    3.737    3.739
 qs_rho_update_rho                   10  5.0    0.000    0.000    2.524    2.525
 calculate_rho_elec                  10  6.0    0.005    0.006    2.524    2.525
 mp_waitall_1                     10777 13.0    2.053    2.486    2.053    2.486
 hfx_ks_matrix                        9  8.0    0.000    0.000    2.466    2.470
 integrate_four_center                9  9.0    0.033    0.430    2.465    2.468
 rs_pw_transfer                      63  8.9    0.001    0.001    2.056    2.461
 density_rs2pw                       10  7.0    0.000    0.001    1.579    1.972
 init_scf_loop                        1  4.0    0.000    0.000    1.679    1.679
 rs_pw_transfer_RS2PW_150            12  8.8    0.136    0.182    1.229    1.634
 integrate_four_center_main           9 10.0    0.002    0.003    1.395    1.555
 integrate_four_center_bin          612 11.0    1.393    1.553    1.393    1.553
 grid_collocate_task_list            10  7.0    0.926    1.242    0.926    1.242
 sum_up_and_integrate                 5  8.0    0.000    0.000    0.964    1.122
 integrate_v_rspace                   5  9.0    0.000    0.001    0.964    1.122
 dbcsr_multiply_generic             123  9.6    0.004    0.004    0.507    0.680
 potential_pw2rs                      5 10.0    0.000    0.000    0.588    0.591
 grid_integrate_task_list             5 10.0    0.375    0.533    0.375    0.533
 rs_pw_transfer_PW2RS_150             6 11.3    0.064    0.083    0.445    0.463
 mp_bcast_im                        337  7.2    0.433    0.446    0.433    0.446
 pw_transfer                         94  8.8    0.007    0.009    0.427    0.439
 mp_sum_l                           928  7.5    0.247    0.433    0.247    0.433
 fft_wrap_pw1pw2                     76  9.8    0.001    0.001    0.412    0.422
 fft_wrap_pw1pw2_150                 31 10.4    0.024    0.033    0.338    0.365
 fft3d_ps                            76 11.8    0.133    0.158    0.327    0.339
 init_scf_run                         1  3.0    0.000    0.000    0.314    0.314
 scf_env_initial_rho_setup            1  4.0    0.000    0.000    0.314    0.314
 qs_scf_new_mos                       9  5.0    0.000    0.000    0.307    0.310
 qs_scf_loop_do_ot                    9  6.0    0.000    0.000    0.307    0.310
 ot_scf_mini                          9  7.0    0.000    0.000    0.277    0.279
 mp_sync                             52 10.6    0.185    0.264    0.185    0.264
 rs_pw_transfer_RS2PW_50             10  9.0    0.016    0.023    0.209    0.247
 multiply_cannon                    123 10.6    0.007    0.008    0.214    0.241
 qs_energies_init_hamiltonians        1  3.0    0.000    0.000    0.217    0.217
 multiply_cannon_loop               123 11.6    0.003    0.003    0.190    0.215
 mp_alltoall_z22v                    76 13.8    0.164    0.202    0.164    0.202
 scf_post_calculation_gpw             1  3.0    0.000    0.000    0.200    0.201
 write_available_results              1  4.0    0.000    0.000    0.200    0.200
 write_mo_free_results                1  5.0    0.001    0.002    0.200    0.200
 integrate_four_center_load           9 10.0    0.000    0.000    0.180    0.181
 hfx_load_balance                     1 11.0    0.000    0.001    0.180    0.181
 qs_env_update_s_mstruct              1  4.0    0.000    0.000    0.144    0.165
 calculate_rho_core                   1  5.0    0.003    0.004    0.141    0.161
 ot_mini                              9  8.0    0.000    0.000    0.151    0.152
 yz_to_x                             46 12.3    0.013    0.023    0.121    0.142
 qs_ot_get_derivative                 5  9.0    0.000    0.000    0.125    0.127
 rs_pw_transfer_PW2RS_50              5 12.0    0.010    0.013    0.105    0.120
 calculate_hirshfeld_normalizat       1  6.0    0.019    0.023    0.104    0.109
 multiply_cannon_metrocomm3         738 12.6    0.001    0.002    0.057    0.108
 build_core_hamiltonian_matrix        1  4.0    0.000    0.000    0.068    0.094
 mp_sum_d                           648  4.5    0.068    0.090    0.068    0.090
 hirshfeld_integration                1  6.0    0.014    0.018    0.089    0.089
 multiply_cannon_metrocomm1         738 12.6    0.002    0.002    0.050    0.087
 calc_screening_functions             1 10.0    0.024    0.026    0.080    0.087
 integrate_four_center_getP           9 10.0    0.009    0.009    0.083    0.086
 integrate_four_center_dist_KS        9 10.0    0.004    0.006    0.084    0.084
 powell_optimize                  29079 11.0    0.075    0.084    0.075    0.084
 prepare_preconditioner               1  5.0    0.000    0.000    0.083    0.083
 make_preconditioner                  1  6.0    0.000    0.000    0.083    0.083
 hfx_load_balance_count               1 12.0    0.071    0.083    0.071    0.083
 hfx_load_balance_bin                 1 12.0    0.071    0.083    0.071    0.083
 x_to_yz                             30 13.5    0.014    0.019    0.070    0.079
 make_m2s                           246 10.6    0.002    0.002    0.067    0.074
 qs_ot_get_derivative_taylor          5 10.0    0.000    0.000    0.072    0.074
 -------------------------------------------------------------------------------

 The number of warnings for this run is : 1
 
 -------------------------------------------------------------------------------
  **** **** ******  **  PROGRAM ENDED AT                 2022-05-26 22:07:21.220
 ***** ** ***  *** **   PROGRAM RAN ON                                   tcopt11
 **    ****   ******    PROGRAM RAN BY                                   wilhelm
 ***** **    ** ** **   PROGRAM PROCESS ID                                 93464
  **** **  *******  **  PROGRAM STOPPED IN /data/wilhelm/55_check_HFX/7_HFX_MoS2
                                           _PERIODIC_XY_FIXED_CODE/04_height_08A
                                           _E_
