 DBCSR| CPU Multiplication driver                                           XSMM
 DBCSR| Multrec recursion limit                                              512
 DBCSR| Multiplication stack size                                           1000
 DBCSR| Maximum elements for images                                    UNLIMITED
 DBCSR| Multiplicative factor virtual images                                   1
 DBCSR| Use multiplication densification                                       T
 DBCSR| Multiplication size stacks                                             3
 DBCSR| Use memory pool for CPU allocation                                     F
 DBCSR| Number of 3D layers                                               SINGLE
 DBCSR| Use MPI memory allocation                                              F
 DBCSR| Use RMA algorithm                                                      F
 DBCSR| Use Communication thread                                               T
 DBCSR| Communication thread load                                             87
 DBCSR| MPI: My node id                                                        0
 DBCSR| MPI: Number of nodes                                                  36
 DBCSR| OMP: Current number of threads                                         1
 DBCSR| OMP: Max number of threads                                             1
 DBCSR| Split modifier for TAS multiplication algorithm                  1.0E+00


  **** **** ******  **  PROGRAM STARTED AT               2022-05-26 21:56:36.000
 ***** ** ***  *** **   PROGRAM STARTED ON                               tcopt11
 **    ****   ******    PROGRAM STARTED BY                               wilhelm
 ***** **    ** ** **   PROGRAM PROCESS ID                                 89777
  **** **  *******  **  PROGRAM STARTED IN /data/wilhelm/55_check_HFX/6_HFX_MoS2
                                           _PERIODIC_XYZ/05_height_10A_E_

 CP2K| version string:                   CP2K version 10.0 (Development Version)
 CP2K| source code revision number:                                  git:3d29584
 CP2K| cp2kflags: omp libint fftw3 libxc parallel mpi3 scalapack xsmm           
 CP2K| is freely available from                            https://www.cp2k.org/
 CP2K| Program compiled at                      Sun 22 May 2022 01:43:22 PM CEST
 CP2K| Program compiled on                                               tcopt11
 CP2K| Program compiled for                                                local
 CP2K| Data directory path                    /data/wilhelm/52_fix_HFX/cp2k/data
 CP2K| Input file name                                                    HF.inp

 GLOBAL| Force Environment number                                              1
 GLOBAL| Basis set file name                            ../../BASIS_Mo_S_minimal
 GLOBAL| Potential file name                                      GTH_POTENTIALS
 GLOBAL| MM Potential file name                                     MM_POTENTIAL
 GLOBAL| Coordinate file name                                      __STD_INPUT__
 GLOBAL| Method name                                                        CP2K
 GLOBAL| Project name                                                       MoS2
 GLOBAL| Run type                                                         ENERGY
 GLOBAL| FFT library                                                       FFTW3
 GLOBAL| Diagonalization library                                       ScaLAPACK
 GLOBAL| Orthonormality check for eigenvectors                          DISABLED
 GLOBAL| Matrix multiplication library                                 ScaLAPACK
 GLOBAL| All-to-all communication in single precision                          F
 GLOBAL| FFTs using library dependent lengths                                  F
 GLOBAL| Grid backend                                                       AUTO
 GLOBAL| Global print level                                               MEDIUM
 GLOBAL| MPI I/O enabled                                                       T
 GLOBAL| Total number of message passing processes                            36
 GLOBAL| Number of threads for this process                                    1
 GLOBAL| This output is from process                                           0
 GLOBAL| Stack size for threads created by OpenMP (OMP_STACKSIZE)        default
 GLOBAL| CPU model name                          AMD EPYC 7401 24-Core Processor
 GLOBAL| CPUID                                                              1002

 MEMORY| system memory details [Kb]
 MEMORY|                        rank 0           min           max       average
 MEMORY| MemTotal            263969112     263969112     263969112     263969112
 MEMORY| MemFree             209594736     209594736     209594736     209594736
 MEMORY| Buffers               1123320       1123320       1123320       1123320
 MEMORY| Cached               45607336      45607336      45607336      45607336
 MEMORY| Slab                  2851076       2851076       2851076       2851076
 MEMORY| SReclaimable          2287776       2287776       2287776       2287776
 MEMORY| MemLikelyFree       258613168     258613168     258613168     258613168


 *** Fundamental physical constants (SI units) ***

 *** Literature: B. J. Mohr and B. N. Taylor,
 ***             CODATA recommended values of the fundamental physical
 ***             constants: 2006, Web Version 5.1
 ***             http://physics.nist.gov/constants

 Speed of light in vacuum [m/s]                             2.99792458000000E+08
 Magnetic constant or permeability of vacuum [N/A**2]       1.25663706143592E-06
 Electric constant or permittivity of vacuum [F/m]          8.85418781762039E-12
 Planck constant (h) [J*s]                                  6.62606896000000E-34
 Planck constant (h-bar) [J*s]                              1.05457162825177E-34
 Elementary charge [C]                                      1.60217648700000E-19
 Electron mass [kg]                                         9.10938215000000E-31
 Electron g factor [ ]                                     -2.00231930436220E+00
 Proton mass [kg]                                           1.67262163700000E-27
 Fine-structure constant                                    7.29735253760000E-03
 Rydberg constant [1/m]                                     1.09737315685270E+07
 Avogadro constant [1/mol]                                  6.02214179000000E+23
 Boltzmann constant [J/K]                                   1.38065040000000E-23
 Atomic mass unit [kg]                                      1.66053878200000E-27
 Bohr radius [m]                                            5.29177208590000E-11

 *** Conversion factors ***

 [u] -> [a.u.]                                              1.82288848426455E+03
 [Angstrom] -> [Bohr] = [a.u.]                              1.88972613288564E+00
 [a.u.] = [Bohr] -> [Angstrom]                              5.29177208590000E-01
 [a.u.] -> [s]                                              2.41888432650478E-17
 [a.u.] -> [fs]                                             2.41888432650478E-02
 [a.u.] -> [J]                                              4.35974393937059E-18
 [a.u.] -> [N]                                              8.23872205491840E-08
 [a.u.] -> [K]                                              3.15774647902944E+05
 [a.u.] -> [kJ/mol]                                         2.62549961709828E+03
 [a.u.] -> [kcal/mol]                                       6.27509468713739E+02
 [a.u.] -> [Pa]                                             2.94210107994716E+13
 [a.u.] -> [bar]                                            2.94210107994716E+08
 [a.u.] -> [atm]                                            2.90362800883016E+08
 [a.u.] -> [eV]                                             2.72113838565563E+01
 [a.u.] -> [Hz]                                             6.57968392072181E+15
 [a.u.] -> [1/cm] (wave numbers)                            2.19474631370540E+05
 [a.u./Bohr**2] -> [1/cm]                                   5.14048714338585E+03
 

 CELL_TOP| Volume [angstrom^3]:                                      3093.529345
 CELL_TOP| Vector a [angstrom    18.900     0.000     0.000   |a| =    18.900000
 CELL_TOP| Vector b [angstrom    -9.450    16.368     0.000   |b| =    18.900000
 CELL_TOP| Vector c [angstrom     0.000     0.000    10.000   |c| =    10.000000
 CELL_TOP| Angle (b,c), alpha [degree]:                                90.000000
 CELL_TOP| Angle (a,c), beta  [degree]:                                90.000000
 CELL_TOP| Angle (a,b), gamma [degree]:                               120.000000
 CELL_TOP| Numerically orthorhombic:                                          NO

 CELL_UC| Volume [angstrom^3]:                                         85.931371
 CELL_UC| Vector a [angstrom]     3.150     0.000     0.000   |a| =     3.150000
 CELL_UC| Vector b [angstrom]    -1.575     2.728     0.000   |b| =     3.150000
 CELL_UC| Vector c [angstrom]     0.000     0.000    10.000   |c| =    10.000000
 CELL_UC| Angle (b,c), alpha [degree]:                                 90.000000
 CELL_UC| Angle (a,c), beta  [degree]:                                 90.000000
 CELL_UC| Angle (a,b), gamma [degree]:                                120.000000
 CELL_UC| Numerically orthorhombic:                                           NO

 GENERATE|  Preliminary Number of Bonds generated:                             0
 GENERATE|  Achieved consistency in connectivity generation.

 CELL| Volume [angstrom^3]:                                          3093.529345
 CELL| Vector a [angstrom]:      18.900     0.000     0.000   |a| =    18.900000
 CELL| Vector b [angstrom]:      -9.450    16.368     0.000   |b| =    18.900000
 CELL| Vector c [angstrom]:       0.000     0.000    10.000   |c| =    10.000000
 CELL| Angle (b,c), alpha [degree]:                                    90.000000
 CELL| Angle (a,c), beta  [degree]:                                    90.000000
 CELL| Angle (a,b), gamma [degree]:                                   120.000000
 CELL| Numerically orthorhombic:                                              NO

 CELL_REF| Volume [angstrom^3]:                                      3093.529345
 CELL_REF| Vector a [angstrom    18.900     0.000     0.000   |a| =    18.900000
 CELL_REF| Vector b [angstrom    -9.450    16.368     0.000   |b| =    18.900000
 CELL_REF| Vector c [angstrom     0.000     0.000    10.000   |c| =    10.000000
 CELL_REF| Angle (b,c), alpha [degree]:                                90.000000
 CELL_REF| Angle (a,c), beta  [degree]:                                90.000000
 CELL_REF| Angle (a,b), gamma [degree]:                               120.000000
 CELL_REF| Numerically orthorhombic:                                          NO

 *******************************************************************************
 *******************************************************************************
 **                                                                           **
 **     #####                         ##              ##                      **
 **    ##   ##            ##          ##              ##                      **
 **   ##     ##                       ##            ######                    **
 **   ##     ##  ##   ##  ##   #####  ##  ##   ####   ##    #####    #####    **
 **   ##     ##  ##   ##  ##  ##      ## ##   ##      ##   ##   ##  ##   ##   **
 **   ##  ## ##  ##   ##  ##  ##      ####     ###    ##   ######   ######    **
 **    ##  ###   ##   ##  ##  ##      ## ##      ##   ##   ##       ##        **
 **     #######   #####   ##   #####  ##  ##  ####    ##    #####   ##        **
 **           ##                                                    ##        **
 **                                                                           **
 **                                                ... make the atoms dance   **
 **                                                                           **
 **            Copyright (C) by CP2K developers group (2000-2022)             **
 **                      J. Chem. Phys. 152, 194103 (2020)                    **
 **                                                                           **
 *******************************************************************************

 DFT| Spin restricted Kohn-Sham (RKS) calculation                            RKS
 DFT| Multiplicity                                                             1
 DFT| Number of spin states                                                    1
 DFT| Charge                                                                   0
 DFT| Self-interaction correction (SIC)                                       NO
 DFT| Cutoffs: density                                              1.000000E-10
 DFT|          gradient                                             1.000000E-10
 DFT|          tau                                                  1.000000E-10
 DFT|          cutoff_smoothing_range                               0.000000E+00
 DFT| XC density smoothing                                                  NONE
 DFT| XC derivatives                                                          PW
 FUNCTIONAL| NO EXCHANGE-CORRELATION FUNCTIONAL USED.

 QS| Method:                                                                 GPW
 QS| Density plane wave grid type                        NON-SPHERICAL FULLSPACE
 QS| Number of grid levels:                                                    4
 QS| Density cutoff [a.u.]:                                                150.0
 QS| Multi grid cutoff [a.u.]: 1) grid level                               150.0
 QS|                           2) grid level                                50.0
 QS|                           3) grid level                                16.7
 QS|                           4) grid level                                 5.6
 QS| Grid level progression factor:                                          3.0
 QS| Relative density cutoff [a.u.]:                                        20.0
 QS| Interaction thresholds: eps_pgf_orb:                                1.0E-20
 QS|                         eps_filter_matrix:                          0.0E+00
 QS|                         eps_core_charge:                            1.0E-22
 QS|                         eps_rho_gspace:                             1.0E-20
 QS|                         eps_rho_rspace:                             1.0E-20
 QS|                         eps_gvg_rspace:                             1.0E-10
 QS|                         eps_ppl:                                    1.0E-02
 QS|                         eps_ppnl:                                   1.0E-12


 ATOMIC KIND INFORMATION

  1. Atomic kind: Mo                                    Number of atoms:      36

     Orbital Basis Set                                                   minimal

       Number of orbital shell sets:                                           3
       Number of orbital shells:                                               3
       Number of primitive Cartesian functions:                                3
       Number of Cartesian basis functions:                                    8
       Number of spherical basis functions:                                    7
       Norm type:                                                              2

       Normalised Cartesian orbitals:

                        Set   Shell   Orbital            Exponent    Coefficient

                          1       1    1s                0.400000       0.358472

                          2       1    1s                2.000000       1.198623

                          3       1    1dx2              1.000000       1.645923
                          3       1    1dxy              1.000000       2.850822
                          3       1    1dxz              1.000000       2.850822
                          3       1    1dy2              1.000000       1.645923
                          3       1    1dyz              1.000000       2.850822
                          3       1    1dz2              1.000000       1.645923

       Atomic covalent radius [Angstrom]:                                  1.300

       Atomic van der Waals radius [Angstrom]:                             1.670

     GTH Potential information for                                   GTH-PADE-q6

       Description:                       Goedecker-Teter-Hutter pseudopotential
                                           Goedecker et al., PRB 54, 1703 (1996)
                                          Hartwigsen et al., PRB 58, 3641 (1998)
                                                      Krack, TCA 114, 145 (2005)

       Gaussian exponent of the core charge distribution:               1.023330
       Electronic configuration (s p d ...):                           1   0   5

       Parameters of the local part of the GTH pseudopotential:

                          rloc        C1          C2          C3          C4
                        0.699000    7.995868

       Parameters of the non-local part of the GTH pseudopotential:

                   l      r(l)      h(i,j,l)

                   0    0.678126    1.289607   -0.386568
                                   -0.386568    0.998113
                   1    0.800771    0.301412   -0.313389
                                   -0.313389    0.741615
                   2    0.453384   -2.809708    3.007755
                                    3.007755   -6.820946

  2. Atomic kind: S                                     Number of atoms:      72

     Orbital Basis Set                                                   minimal

       Number of orbital shell sets:                                           4
       Number of orbital shells:                                               4
       Number of primitive Cartesian functions:                                4
       Number of Cartesian basis functions:                                    8
       Number of spherical basis functions:                                    8
       Norm type:                                                              2

       Normalised Cartesian orbitals:

                        Set   Shell   Orbital            Exponent    Coefficient

                          1       1    1s                0.400000       0.358472

                          2       1    1s                2.000000       1.198623

                          3       1    1px               0.300000       0.316477
                          3       1    1py               0.300000       0.316477
                          3       1    1pz               0.300000       0.316477

                          4       1    1px               0.800000       1.078456
                          4       1    1py               0.800000       1.078456
                          4       1    1pz               0.800000       1.078456

       Atomic covalent radius [Angstrom]:                                  1.020

       Atomic van der Waals radius [Angstrom]:                             1.800

     GTH Potential information for                                   GTH-PADE-q6

       Description:                       Goedecker-Teter-Hutter pseudopotential
                                           Goedecker et al., PRB 54, 1703 (1996)
                                          Hartwigsen et al., PRB 58, 3641 (1998)
                                                      Krack, TCA 114, 145 (2005)

       Gaussian exponent of the core charge distribution:               2.834467
       Electronic configuration (s p d ...):                               2   4

       Parameters of the local part of the GTH pseudopotential:

                          rloc        C1          C2          C3          C4
                        0.420000   -6.554492

       Parameters of the non-local part of the GTH pseudopotential:

                   l      r(l)      h(i,j,l)

                   0    0.361757    7.905303   -1.731881
                                   -1.731881    4.471698
                   1    0.405285    3.866579


 MOLECULE KIND INFORMATION


 All atoms are their own molecule, skipping detailed information


 TOTAL NUMBERS AND MAXIMUM NUMBERS

  Total number of            - Atomic kinds:                                   2
                             - Atoms:                                        108
                             - Shell sets:                                   396
                             - Shells:                                       396
                             - Primitive Cartesian functions:                396
                             - Cartesian basis functions:                    864
                             - Spherical basis functions:                    828

  Maximum angular momentum of- Orbital basis functions:                        2
                             - Local part of the GTH pseudopotential:          0
                             - Non-local part of the GTH pseudopotential:      4


 MODULE QUICKSTEP:  ATOMIC COORDINATES IN angstrom

 Atom  Kind  Element       X           Y           Z          Z(eff)       Mass
    1   1 Mo  42       0.000000    1.818650    3.075000       6.0000     95.9600
    2   2 S   16       0.000000    3.637310    1.488300       6.0000     32.0650
    3   2 S   16       0.000000    3.637310    4.661700       6.0000     32.0650
    4   1 Mo  42       3.150000    1.818650    3.075000       6.0000     95.9600
    5   2 S   16       3.150000    3.637310    1.488300       6.0000     32.0650
    6   2 S   16       3.150000    3.637310    4.661700       6.0000     32.0650
    7   1 Mo  42       6.300000    1.818650    3.075000       6.0000     95.9600
    8   2 S   16       6.300000    3.637310    1.488300       6.0000     32.0650
    9   2 S   16       6.300000    3.637310    4.661700       6.0000     32.0650
   10   1 Mo  42       9.450000    1.818650    3.075000       6.0000     95.9600
   11   2 S   16       9.450000    3.637310    1.488300       6.0000     32.0650
   12   2 S   16       9.450000    3.637310    4.661700       6.0000     32.0650
   13   1 Mo  42      12.600000    1.818650    3.075000       6.0000     95.9600
   14   2 S   16      12.600000    3.637310    1.488300       6.0000     32.0650
   15   2 S   16      12.600000    3.637310    4.661700       6.0000     32.0650
   16   1 Mo  42      15.750000    1.818650    3.075000       6.0000     95.9600
   17   2 S   16      15.750000    3.637310    1.488300       6.0000     32.0650
   18   2 S   16      15.750000    3.637310    4.661700       6.0000     32.0650
   19   1 Mo  42      -1.575000    4.546630    3.075000       6.0000     95.9600
   20   2 S   16      -1.575000    6.365290    1.488300       6.0000     32.0650
   21   2 S   16      -1.575000    6.365290    4.661700       6.0000     32.0650
   22   1 Mo  42       1.575000    4.546630    3.075000       6.0000     95.9600
   23   2 S   16       1.575000    6.365290    1.488300       6.0000     32.0650
   24   2 S   16       1.575000    6.365290    4.661700       6.0000     32.0650
   25   1 Mo  42       4.725000    4.546630    3.075000       6.0000     95.9600
   26   2 S   16       4.725000    6.365290    1.488300       6.0000     32.0650
   27   2 S   16       4.725000    6.365290    4.661700       6.0000     32.0650
   28   1 Mo  42       7.875000    4.546630    3.075000       6.0000     95.9600
   29   2 S   16       7.875000    6.365290    1.488300       6.0000     32.0650
   30   2 S   16       7.875000    6.365290    4.661700       6.0000     32.0650
   31   1 Mo  42      11.025000    4.546630    3.075000       6.0000     95.9600
   32   2 S   16      11.025000    6.365290    1.488300       6.0000     32.0650
   33   2 S   16      11.025000    6.365290    4.661700       6.0000     32.0650
   34   1 Mo  42      14.175000    4.546630    3.075000       6.0000     95.9600
   35   2 S   16      14.175000    6.365290    1.488300       6.0000     32.0650
   36   2 S   16      14.175000    6.365290    4.661700       6.0000     32.0650
   37   1 Mo  42      -3.150000    7.274610    3.075000       6.0000     95.9600
   38   2 S   16      -3.150000    9.093270    1.488300       6.0000     32.0650
   39   2 S   16      -3.150000    9.093270    4.661700       6.0000     32.0650
   40   1 Mo  42       0.000000    7.274610    3.075000       6.0000     95.9600
   41   2 S   16       0.000000    9.093270    1.488300       6.0000     32.0650
   42   2 S   16       0.000000    9.093270    4.661700       6.0000     32.0650
   43   1 Mo  42       3.150000    7.274610    3.075000       6.0000     95.9600
   44   2 S   16       3.150000    9.093270    1.488300       6.0000     32.0650
   45   2 S   16       3.150000    9.093270    4.661700       6.0000     32.0650
   46   1 Mo  42       6.300000    7.274610    3.075000       6.0000     95.9600
   47   2 S   16       6.300000    9.093270    1.488300       6.0000     32.0650
   48   2 S   16       6.300000    9.093270    4.661700       6.0000     32.0650
   49   1 Mo  42       9.450000    7.274610    3.075000       6.0000     95.9600
   50   2 S   16       9.450000    9.093270    1.488300       6.0000     32.0650
   51   2 S   16       9.450000    9.093270    4.661700       6.0000     32.0650
   52   1 Mo  42      12.600000    7.274610    3.075000       6.0000     95.9600
   53   2 S   16      12.600000    9.093270    1.488300       6.0000     32.0650
   54   2 S   16      12.600000    9.093270    4.661700       6.0000     32.0650
   55   1 Mo  42      -4.725000   10.002590    3.075000       6.0000     95.9600
   56   2 S   16      -4.725000   11.821250    1.488300       6.0000     32.0650
   57   2 S   16      -4.725000   11.821250    4.661700       6.0000     32.0650
   58   1 Mo  42      -1.575000   10.002590    3.075000       6.0000     95.9600
   59   2 S   16      -1.575000   11.821250    1.488300       6.0000     32.0650
   60   2 S   16      -1.575000   11.821250    4.661700       6.0000     32.0650
   61   1 Mo  42       1.575000   10.002590    3.075000       6.0000     95.9600
   62   2 S   16       1.575000   11.821250    1.488300       6.0000     32.0650
   63   2 S   16       1.575000   11.821250    4.661700       6.0000     32.0650
   64   1 Mo  42       4.725000   10.002590    3.075000       6.0000     95.9600
   65   2 S   16       4.725000   11.821250    1.488300       6.0000     32.0650
   66   2 S   16       4.725000   11.821250    4.661700       6.0000     32.0650
   67   1 Mo  42       7.875000   10.002590    3.075000       6.0000     95.9600
   68   2 S   16       7.875000   11.821250    1.488300       6.0000     32.0650
   69   2 S   16       7.875000   11.821250    4.661700       6.0000     32.0650
   70   1 Mo  42      11.025000   10.002590    3.075000       6.0000     95.9600
   71   2 S   16      11.025000   11.821250    1.488300       6.0000     32.0650
   72   2 S   16      11.025000   11.821250    4.661700       6.0000     32.0650
   73   1 Mo  42      -6.300000   12.730570    3.075000       6.0000     95.9600
   74   2 S   16      -6.300000   14.549230    1.488300       6.0000     32.0650
   75   2 S   16      -6.300000   14.549230    4.661700       6.0000     32.0650
   76   1 Mo  42      -3.150000   12.730570    3.075000       6.0000     95.9600
   77   2 S   16      -3.150000   14.549230    1.488300       6.0000     32.0650
   78   2 S   16      -3.150000   14.549230    4.661700       6.0000     32.0650
   79   1 Mo  42       0.000000   12.730570    3.075000       6.0000     95.9600
   80   2 S   16       0.000000   14.549230    1.488300       6.0000     32.0650
   81   2 S   16       0.000000   14.549230    4.661700       6.0000     32.0650
   82   1 Mo  42       3.150000   12.730570    3.075000       6.0000     95.9600
   83   2 S   16       3.150000   14.549230    1.488300       6.0000     32.0650
   84   2 S   16       3.150000   14.549230    4.661700       6.0000     32.0650
   85   1 Mo  42       6.300000   12.730570    3.075000       6.0000     95.9600
   86   2 S   16       6.300000   14.549230    1.488300       6.0000     32.0650
   87   2 S   16       6.300000   14.549230    4.661700       6.0000     32.0650
   88   1 Mo  42       9.450000   12.730570    3.075000       6.0000     95.9600
   89   2 S   16       9.450000   14.549230    1.488300       6.0000     32.0650
   90   2 S   16       9.450000   14.549230    4.661700       6.0000     32.0650
   91   1 Mo  42      -7.875000   15.458550    3.075000       6.0000     95.9600
   92   2 S   16      -7.875000   17.277210    1.488300       6.0000     32.0650
   93   2 S   16      -7.875000   17.277210    4.661700       6.0000     32.0650
   94   1 Mo  42      -4.725000   15.458550    3.075000       6.0000     95.9600
   95   2 S   16      -4.725000   17.277210    1.488300       6.0000     32.0650
   96   2 S   16      -4.725000   17.277210    4.661700       6.0000     32.0650
   97   1 Mo  42      -1.575000   15.458550    3.075000       6.0000     95.9600
   98   2 S   16      -1.575000   17.277210    1.488300       6.0000     32.0650
   99   2 S   16      -1.575000   17.277210    4.661700       6.0000     32.0650
  100   1 Mo  42       1.575000   15.458550    3.075000       6.0000     95.9600
  101   2 S   16       1.575000   17.277210    1.488300       6.0000     32.0650
  102   2 S   16       1.575000   17.277210    4.661700       6.0000     32.0650
  103   1 Mo  42       4.725000   15.458550    3.075000       6.0000     95.9600
  104   2 S   16       4.725000   17.277210    1.488300       6.0000     32.0650
  105   2 S   16       4.725000   17.277210    4.661700       6.0000     32.0650
  106   1 Mo  42       7.875000   15.458550    3.075000       6.0000     95.9600
  107   2 S   16       7.875000   17.277210    1.488300       6.0000     32.0650
  108   2 S   16       7.875000   17.277210    4.661700       6.0000     32.0650




 SCF PARAMETERS         Density guess:                                   RESTART
                        --------------------------------------------------------
                        max_scf:                                              40
                        max_scf_history:                                       0
                        max_diis:                                              4
                        --------------------------------------------------------
                        eps_scf:                                        1.00E-05
                        eps_scf_history:                                0.00E+00
                        eps_diis:                                       1.00E-01
                        eps_eigval:                                     1.00E-05
                        --------------------------------------------------------
                        level_shift [a.u.]:                             0.000000
                        --------------------------------------------------------
                        Outer loop SCF in use 
                        No variables optimised in outer loop
                        eps_scf                                         1.00E-05
                        max_scf                                               50
                        No outer loop optimization
                        step_size                                       5.00E-01

 PW_GRID| Information for grid number                                          1
 PW_GRID| Grid distributed over                                    36 processors
 PW_GRID| Real space group dimensions                                    36    1
 PW_GRID| the grid is blocked:                                                NO
 PW_GRID| Cutoff [a.u.]                                                    150.0
 PW_GRID| spherical cutoff:                                                   NO
 PW_GRID|   Bounds   1           -100      99                Points:         200
 PW_GRID|   Bounds   2           -100      99                Points:         200
 PW_GRID|   Bounds   3            -54      53                Points:         108
 PW_GRID| Volume element (a.u.^3)  0.4832E-02     Volume (a.u.^3)     20876.1711
 PW_GRID| Grid span                                                    FULLSPACE
 PW_GRID|   Distribution                         Average         Max         Min
 PW_GRID|   G-Vectors                           120000.0      120000      120000
 PW_GRID|   G-Rays                                 600.0         600         600
 PW_GRID|   Real Space Points                   120000.0      129600      108000

 PW_GRID| Information for grid number                                          2
 PW_GRID| Number of the reference grid                                         1
 PW_GRID| Grid distributed over                                    36 processors
 PW_GRID| Real space group dimensions                                    36    1
 PW_GRID| the grid is blocked:                                                NO
 PW_GRID| Cutoff [a.u.]                                                     50.0
 PW_GRID| spherical cutoff:                                                   NO
 PW_GRID|   Bounds   1            -60      59                Points:         120
 PW_GRID|   Bounds   2            -60      59                Points:         120
 PW_GRID|   Bounds   3            -32      31                Points:          64
 PW_GRID| Volume element (a.u.^3)  0.2265E-01     Volume (a.u.^3)     20876.1711
 PW_GRID| Grid span                                                    FULLSPACE
 PW_GRID|   Distribution                         Average         Max         Min
 PW_GRID|   G-Vectors                            25600.0       26280       24120
 PW_GRID|   G-Rays                                 213.3         219         201
 PW_GRID|   Real Space Points                    25600.0       30720       23040

 PW_GRID| Information for grid number                                          3
 PW_GRID| Number of the reference grid                                         1
 PW_GRID| Grid distributed over                                    36 processors
 PW_GRID| Real space group dimensions                                    36    1
 PW_GRID| the grid is blocked:                                                NO
 PW_GRID| Cutoff [a.u.]                                                     16.7
 PW_GRID| spherical cutoff:                                                   NO
 PW_GRID|   Bounds   1            -36      35                Points:          72
 PW_GRID|   Bounds   2            -36      35                Points:          72
 PW_GRID|   Bounds   3            -18      17                Points:          36
 PW_GRID| Volume element (a.u.^3)  0.1119         Volume (a.u.^3)     20876.1711
 PW_GRID| Grid span                                                    FULLSPACE
 PW_GRID|   Distribution                         Average         Max         Min
 PW_GRID|   G-Vectors                             5184.0        5760        4608
 PW_GRID|   G-Rays                                  72.0          80          64
 PW_GRID|   Real Space Points                     5184.0        5184        5184

 PW_GRID| Information for grid number                                          4
 PW_GRID| Number of the reference grid                                         1
 PW_GRID| Grid distributed over                                    36 processors
 PW_GRID| Real space group dimensions                                    36    1
 PW_GRID| the grid is blocked:                                                NO
 PW_GRID| Cutoff [a.u.]                                                      5.6
 PW_GRID| spherical cutoff:                                                   NO
 PW_GRID|   Bounds   1            -20      19                Points:          40
 PW_GRID|   Bounds   2            -20      19                Points:          40
 PW_GRID|   Bounds   3            -12      11                Points:          24
 PW_GRID| Volume element (a.u.^3)  0.5437         Volume (a.u.^3)     20876.1711
 PW_GRID| Grid span                                                    FULLSPACE
 PW_GRID|   Distribution                         Average         Max         Min
 PW_GRID|   G-Vectors                             1066.7        1160         960
 PW_GRID|   G-Rays                                  26.7          29          24
 PW_GRID|   Real Space Points                     1066.7        1920         960

 POISSON| Solver                                                        PERIODIC
 POISSON| Periodicity                                                        XYZ

 RS_GRID| Information for grid number                                          1
 RS_GRID|   Bounds   1           -100      99                Points:         200
 RS_GRID|   Bounds   2           -100      99                Points:         200
 RS_GRID|   Bounds   3            -54      53                Points:         108
 RS_GRID| Real space fully replicated
 RS_GRID| Group size                                                           1

 RS_GRID| Information for grid number                                          2
 RS_GRID|   Bounds   1            -60      59                Points:         120
 RS_GRID|   Bounds   2            -60      59                Points:         120
 RS_GRID|   Bounds   3            -32      31                Points:          64
 RS_GRID| Real space fully replicated
 RS_GRID| Group size                                                           1

 RS_GRID| Information for grid number                                          3
 RS_GRID|   Bounds   1            -36      35                Points:          72
 RS_GRID|   Bounds   2            -36      35                Points:          72
 RS_GRID|   Bounds   3            -18      17                Points:          36
 RS_GRID| Real space fully replicated
 RS_GRID| Group size                                                           1

 RS_GRID| Information for grid number                                          4
 RS_GRID|   Bounds   1            -20      19                Points:          40
 RS_GRID|   Bounds   2            -20      19                Points:          40
 RS_GRID|   Bounds   3            -12      11                Points:          24
 RS_GRID| Real space fully replicated
 RS_GRID| Group size                                                           1

 *** WARNING in hfx_types.F:1969 :: Periodic Hartree Fock calculation      ***
 *** requested with use of a truncated or shortrange potential. The cutoff ***
 *** radius is larger than half the minimal cell dimension. This may lead  ***
 *** to unphysical total energies. Reduce the cutoff radius in order to    ***
 *** avoid possible problems.                                              ***


  HFX_INFO| Replica ID:                                                        1
  HFX_INFO| FRACTION:                                               1.0000000000
  HFX_INFO| Interaction Potential:                                     TRUNCATED
  HFX_INFO| Cutoff Radius [angstrom]:                               9.0000000000
  HFX_INFO| EPS_SCHWARZ:                                                 1.0E-06
  HFX_INFO| EPS_SCHWARZ_FORCES                                           1.0E-06
  HFX_INFO| EPS_STORAGE_SCALING:                                         1.0E-01
  HFX_INFO| NBINS:                                                            64
  HFX_INFO| BLOCK_SIZE:                                                        2
  HFX_INFO| NUMBER_OF_SHELLS:                                               AUTO
  HFX_INFO| Number of periodic shells considered:                             -1
  HFX_INFO| Number of periodic cells considered:                              23


 Number of electrons:                                                        648
 Number of occupied orbitals:                                                324
 Number of molecular orbitals:                                               324

 Number of orbital functions:                                                828
 Number of independent orbital functions:                                    828

 Extrapolation method: initial_guess


 SCF WAVEFUNCTION OPTIMIZATION

  ----------------------------------- OT ---------------------------------------
  Minimizer      : CG                  : conjugate gradient
  Preconditioner : FULL_SINGLE_INVERSE : inversion of 
                                         H + eS - 2*(Sc)(c^T*H*c+const)(Sc)^T
  Precond_solver : DEFAULT
  Line search    : 2PNT                : 2 energies, one gradient
  stepsize       :    0.08000000                  energy_gap     :    0.08000000
  eps_taylor     :   0.10000E-15                  max_taylor     :             4
  ----------------------------------- OT ---------------------------------------

  Step     Update method      Time    Convergence         Total energy    Change
  ------------------------------------------------------------------------------

  HFX_MEM_INFO| Est. max. program size before HFX [MiB]:                     275
  HFX_MEM_INFO| Number of cart. primitive ERI's calculated:            942966790
  HFX_MEM_INFO| Number of sph. ERI's calculated:                       297233173
  HFX_MEM_INFO| Number of sph. ERI's stored in-core:                   103384807
  HFX_MEM_INFO| Number of sph. ERI's stored on disk:                           0
  HFX_MEM_INFO| Number of sph. ERI's calculated on the fly:                    0
  HFX_MEM_INFO| Total memory consumption ERI's RAM [MiB]:                    109
  HFX_MEM_INFO| Whereof max-vals [MiB]:                                        7
  HFX_MEM_INFO| Total compression factor ERI's RAM:                         7.28
  HFX_MEM_INFO| Total memory consumption ERI's disk [MiB]:                     0
  HFX_MEM_INFO| Total compression factor ERI's disk:                        0.00
  HFX_MEM_INFO| Size of density/Fock matrix [MiB]:                             4
  HFX_MEM_INFO| Size of buffers [MiB]:                                         1
  HFX_MEM_INFO| Number of periodic image cells considered:                    23
  HFX_MEM_INFO| Est. max. program size after HFX  [MiB]:                     313

     1 OT CG       0.80E-01    2.0     0.00000441      -898.0165718410 -8.98E+02

  *** SCF run converged in     1 steps ***


  Electronic density on regular grids:       -648.0000000000        0.0000000000
  Core density on regular grids:              648.0000000000        0.0000000000
  Total charge density on r-space grids:        0.0000000000
  Total charge density g-space grids:          -0.0000000000

  Overlap energy of the core charge distribution:               0.00003919135878
  Self energy of the core charge distribution:              -2263.95339448397044
  Core Hamiltonian energy:                                    766.44576594990099
  Hartree energy:                                             835.50128584448998
  Exchange-correlation energy:                                  0.00000000000000
  Hartree-Fock Exchange energy:                              -236.01026834274683

  Total energy:                                              -898.01657184096769

  outer SCF iter =    1 RMS gradient =   0.44E-05 energy =       -898.0165718410
  outer SCF loop converged in   1 iterations or    1 steps


 !-----------------------------------------------------------------------------!
                     Mulliken Population Analysis

 #  Atom  Element  Kind  Atomic population                           Net charge
       1     Mo       1          2.740732                              3.259268
       2     S        2          7.625065                             -1.625065
       3     S        2          7.625082                             -1.625082
       4     Mo       1          2.741511                              3.258489
       5     S        2          7.635565                             -1.635565
       6     S        2          7.635556                             -1.635556
       7     Mo       1          2.740719                              3.259281
       8     S        2          7.621539                             -1.621539
       9     S        2          7.621540                             -1.621540
      10     Mo       1          2.741475                              3.258525
      11     S        2          7.628989                             -1.628989
      12     S        2          7.628983                             -1.628983
      13     Mo       1          2.741258                              3.258742
      14     S        2          7.632821                             -1.632821
      15     S        2          7.632816                             -1.632816
      16     Mo       1          2.741421                              3.258579
      17     S        2          7.639133                             -1.639133
      18     S        2          7.639093                             -1.639093
      19     Mo       1          2.741880                              3.258120
      20     S        2          7.638042                             -1.638042
      21     S        2          7.638037                             -1.638037
      22     Mo       1          2.741343                              3.258657
      23     S        2          7.627983                             -1.627983
      24     S        2          7.627984                             -1.627984
      25     Mo       1          2.741407                              3.258593
      26     S        2          7.629904                             -1.629904
      27     S        2          7.629911                             -1.629911
      28     Mo       1          2.741140                              3.258860
      29     S        2          7.626864                             -1.626864
      30     S        2          7.626856                             -1.626856
      31     Mo       1          2.741679                              3.258321
      32     S        2          7.625974                             -1.625974
      33     S        2          7.625977                             -1.625977
      34     Mo       1          2.741854                              3.258146
      35     S        2          7.626701                             -1.626701
      36     S        2          7.626725                             -1.626725
      37     Mo       1          2.740965                              3.259035
      38     S        2          7.622294                             -1.622294
      39     S        2          7.622279                             -1.622279
      40     Mo       1          2.741824                              3.258176
      41     S        2          7.627764                             -1.627764
      42     S        2          7.627769                             -1.627769
      43     Mo       1          2.741430                              3.258570
      44     S        2          7.631501                             -1.631501
      45     S        2          7.631494                             -1.631494
      46     Mo       1          2.741254                              3.258746
      47     S        2          7.627949                             -1.627949
      48     S        2          7.627961                             -1.627961
      49     Mo       1          2.741429                              3.258571
      50     S        2          7.634357                             -1.634357
      51     S        2          7.634347                             -1.634347
      52     Mo       1          2.740592                              3.259408
      53     S        2          7.623752                             -1.623752
      54     S        2          7.623750                             -1.623750
      55     Mo       1          2.741271                              3.258729
      56     S        2          7.631262                             -1.631262
      57     S        2          7.631271                             -1.631271
      58     Mo       1          2.740863                              3.259137
      59     S        2          7.635379                             -1.635379
      60     S        2          7.635382                             -1.635382
      61     Mo       1          2.741236                              3.258764
      62     S        2          7.630495                             -1.630495
      63     S        2          7.630498                             -1.630498
      64     Mo       1          2.741657                              3.258343
      65     S        2          7.633060                             -1.633060
      66     S        2          7.633055                             -1.633055
      67     Mo       1          2.741369                              3.258631
      68     S        2          7.625741                             -1.625741
      69     S        2          7.625747                             -1.625747
      70     Mo       1          2.741413                              3.258587
      71     S        2          7.626791                             -1.626791
      72     S        2          7.626781                             -1.626781
      73     Mo       1          2.742095                              3.257905
      74     S        2          7.636475                             -1.636475
      75     S        2          7.636471                             -1.636471
      76     Mo       1          2.741287                              3.258713
      77     S        2          7.627954                             -1.627954
      78     S        2          7.627954                             -1.627954
      79     Mo       1          2.742083                              3.257917
      80     S        2          7.632839                             -1.632839
      81     S        2          7.632844                             -1.632844
      82     Mo       1          2.741298                              3.258702
      83     S        2          7.622511                             -1.622511
      84     S        2          7.622510                             -1.622510
      85     Mo       1          2.741757                              3.258243
      86     S        2          7.629556                             -1.629556
      87     S        2          7.629559                             -1.629559
      88     Mo       1          2.740666                              3.259334
      89     S        2          7.627242                             -1.627242
      90     S        2          7.627241                             -1.627241
      91     Mo       1          2.741794                              3.258206
      92     S        2          7.631896                             -1.631896
      93     S        2          7.631896                             -1.631896
      94     Mo       1          2.741416                              3.258584
      95     S        2          7.626593                             -1.626593
      96     S        2          7.626598                             -1.626598
      97     Mo       1          2.741152                              3.258848
      98     S        2          7.627890                             -1.627890
      99     S        2          7.627890                             -1.627890
     100     Mo       1          2.741672                              3.258328
     101     S        2          7.634022                             -1.634022
     102     S        2          7.634027                             -1.634027
     103     Mo       1          2.740858                              3.259142
     104     S        2          7.623284                             -1.623284
     105     S        2          7.623284                             -1.623284
     106     Mo       1          2.741332                              3.258668
     107     S        2          7.626258                             -1.626258
     108     S        2          7.626254                             -1.626254
 # Total charge                            648.000000                 -0.000000

 !-----------------------------------------------------------------------------!

 !-----------------------------------------------------------------------------!
                           Hirshfeld Charges

  #Atom  Element  Kind  Ref Charge     Population                    Net charge
      1       Mo     1       6.000          4.481                         1.519
      2       S      2       6.000          6.755                        -0.755
      3       S      2       6.000          6.755                        -0.755
      4       Mo     1       6.000          4.483                         1.517
      5       S      2       6.000          6.765                        -0.765
      6       S      2       6.000          6.765                        -0.765
      7       Mo     1       6.000          4.481                         1.519
      8       S      2       6.000          6.751                        -0.751
      9       S      2       6.000          6.751                        -0.751
     10       Mo     1       6.000          4.482                         1.518
     11       S      2       6.000          6.759                        -0.759
     12       S      2       6.000          6.759                        -0.759
     13       Mo     1       6.000          4.482                         1.518
     14       S      2       6.000          6.763                        -0.763
     15       S      2       6.000          6.763                        -0.763
     16       Mo     1       6.000          4.482                         1.518
     17       S      2       6.000          6.769                        -0.769
     18       S      2       6.000          6.769                        -0.769
     19       Mo     1       6.000          4.483                         1.517
     20       S      2       6.000          6.768                        -0.768
     21       S      2       6.000          6.768                        -0.768
     22       Mo     1       6.000          4.482                         1.518
     23       S      2       6.000          6.758                        -0.758
     24       S      2       6.000          6.758                        -0.758
     25       Mo     1       6.000          4.482                         1.518
     26       S      2       6.000          6.760                        -0.760
     27       S      2       6.000          6.760                        -0.760
     28       Mo     1       6.000          4.482                         1.518
     29       S      2       6.000          6.756                        -0.756
     30       S      2       6.000          6.756                        -0.756
     31       Mo     1       6.000          4.483                         1.517
     32       S      2       6.000          6.755                        -0.755
     33       S      2       6.000          6.755                        -0.755
     34       Mo     1       6.000          4.483                         1.517
     35       S      2       6.000          6.756                        -0.756
     36       S      2       6.000          6.756                        -0.756
     37       Mo     1       6.000          4.482                         1.518
     38       S      2       6.000          6.751                        -0.751
     39       S      2       6.000          6.751                        -0.751
     40       Mo     1       6.000          4.483                         1.517
     41       S      2       6.000          6.757                        -0.757
     42       S      2       6.000          6.757                        -0.757
     43       Mo     1       6.000          4.482                         1.518
     44       S      2       6.000          6.761                        -0.761
     45       S      2       6.000          6.761                        -0.761
     46       Mo     1       6.000          4.482                         1.518
     47       S      2       6.000          6.757                        -0.757
     48       S      2       6.000          6.757                        -0.757
     49       Mo     1       6.000          4.482                         1.518
     50       S      2       6.000          6.764                        -0.764
     51       S      2       6.000          6.764                        -0.764
     52       Mo     1       6.000          4.481                         1.519
     53       S      2       6.000          6.753                        -0.753
     54       S      2       6.000          6.753                        -0.753
     55       Mo     1       6.000          4.482                         1.518
     56       S      2       6.000          6.761                        -0.761
     57       S      2       6.000          6.761                        -0.761
     58       Mo     1       6.000          4.482                         1.518
     59       S      2       6.000          6.765                        -0.765
     60       S      2       6.000          6.765                        -0.765
     61       Mo     1       6.000          4.482                         1.518
     62       S      2       6.000          6.760                        -0.760
     63       S      2       6.000          6.760                        -0.760
     64       Mo     1       6.000          4.483                         1.517
     65       S      2       6.000          6.763                        -0.763
     66       S      2       6.000          6.763                        -0.763
     67       Mo     1       6.000          4.482                         1.518
     68       S      2       6.000          6.755                        -0.755
     69       S      2       6.000          6.755                        -0.755
     70       Mo     1       6.000          4.482                         1.518
     71       S      2       6.000          6.756                        -0.756
     72       S      2       6.000          6.756                        -0.756
     73       Mo     1       6.000          4.483                         1.517
     74       S      2       6.000          6.766                        -0.766
     75       S      2       6.000          6.766                        -0.766
     76       Mo     1       6.000          4.482                         1.518
     77       S      2       6.000          6.758                        -0.758
     78       S      2       6.000          6.758                        -0.758
     79       Mo     1       6.000          4.483                         1.517
     80       S      2       6.000          6.763                        -0.763
     81       S      2       6.000          6.763                        -0.763
     82       Mo     1       6.000          4.482                         1.518
     83       S      2       6.000          6.752                        -0.752
     84       S      2       6.000          6.752                        -0.752
     85       Mo     1       6.000          4.483                         1.517
     86       S      2       6.000          6.759                        -0.759
     87       S      2       6.000          6.759                        -0.759
     88       Mo     1       6.000          4.481                         1.519
     89       S      2       6.000          6.757                        -0.757
     90       S      2       6.000          6.757                        -0.757
     91       Mo     1       6.000          4.483                         1.517
     92       S      2       6.000          6.762                        -0.762
     93       S      2       6.000          6.762                        -0.762
     94       Mo     1       6.000          4.482                         1.518
     95       S      2       6.000          6.756                        -0.756
     96       S      2       6.000          6.756                        -0.756
     97       Mo     1       6.000          4.482                         1.518
     98       S      2       6.000          6.757                        -0.757
     99       S      2       6.000          6.757                        -0.757
    100       Mo     1       6.000          4.482                         1.518
    101       S      2       6.000          6.764                        -0.764
    102       S      2       6.000          6.764                        -0.764
    103       Mo     1       6.000          4.481                         1.519
    104       S      2       6.000          6.753                        -0.753
    105       S      2       6.000          6.753                        -0.753
    106       Mo     1       6.000          4.482                         1.518
    107       S      2       6.000          6.756                        -0.756
    108       S      2       6.000          6.756                        -0.756

  Total Charge                                                            0.000
 !-----------------------------------------------------------------------------!

 ENERGY| Total FORCE_EVAL ( QS ) energy [a.u.]:             -898.016571840967686

 -------------------------------------------------------------------------------
 -                                                                             -
 -                                DBCSR STATISTICS                             -
 -                                                                             -
 -------------------------------------------------------------------------------
 COUNTER                                    TOTAL       BLAS       SMM       ACC
 flops     7 x     4 x     4                16128       0.0%    100.0%      0.0%
 flops     4 x     4 x   138                26496       0.0%    100.0%      0.0%
 flops     8 x     4 x     4                36864       0.0%    100.0%      0.0%
 flops    32 x    32 x    32                65536       0.0%    100.0%      0.0%
 flops    32 x    32 x    36                73728       0.0%    100.0%      0.0%
 flops    32 x    36 x    32                73728       0.0%    100.0%      0.0%
 flops    36 x    32 x    32                73728       0.0%    100.0%      0.0%
 flops    32 x    36 x    36                82944       0.0%    100.0%      0.0%
 flops    36 x    32 x    36                82944       0.0%    100.0%      0.0%
 flops    36 x    36 x    32                82944       0.0%    100.0%      0.0%
 flops    36 x    36 x    36                93312       0.0%    100.0%      0.0%
 flops    32 x    32 x    64               524288       0.0%    100.0%      0.0%
 flops    32 x    64 x    32               524288       0.0%    100.0%      0.0%
 flops    64 x    32 x    32               524288       0.0%    100.0%      0.0%
 flops    32 x    36 x    64               589824       0.0%    100.0%      0.0%
 flops    32 x    64 x    36               589824       0.0%    100.0%      0.0%
 flops    36 x    32 x    64               589824       0.0%    100.0%      0.0%
 flops    36 x    64 x    32               589824       0.0%    100.0%      0.0%
 flops    64 x    32 x    36               589824       0.0%    100.0%      0.0%
 flops    64 x    36 x    32               589824       0.0%    100.0%      0.0%
 flops     7 x    32 x     4               645120       0.0%    100.0%      0.0%
 flops     7 x     4 x    32               645120       0.0%    100.0%      0.0%
 flops    36 x    36 x    64               663552       0.0%    100.0%      0.0%
 flops    36 x    64 x    36               663552       0.0%    100.0%      0.0%
 flops    64 x    36 x    36               663552       0.0%    100.0%      0.0%
 flops     4 x    32 x   138              1059840       0.0%    100.0%      0.0%
 flops    32 x     4 x   138              1059840       0.0%    100.0%      0.0%
 flops     8 x    32 x     4              1474560       0.0%    100.0%      0.0%
 flops     8 x     4 x    32              1474560       0.0%    100.0%      0.0%
 flops     7 x     4 x     7              3048192       0.0%    100.0%      0.0%
 flops    64 x    64 x    32              4194304       0.0%    100.0%      0.0%
 flops    32 x    64 x    64              4194304       0.0%    100.0%      0.0%
 flops    64 x    32 x    64              4194304       0.0%    100.0%      0.0%
 flops    64 x    64 x    36              4718592       0.0%    100.0%      0.0%
 flops    36 x    64 x    64              4718592       0.0%    100.0%      0.0%
 flops    64 x    36 x    64              4718592       0.0%    100.0%      0.0%
 flops   138 x    32 x    32              5087232       0.0%    100.0%      0.0%
 flops   138 x    32 x    36              5723136       0.0%    100.0%      0.0%
 flops    32 x    36 x   138              5723136       0.0%    100.0%      0.0%
 flops   138 x    36 x    32              5723136       0.0%    100.0%      0.0%
 flops    36 x    32 x   138              5723136       0.0%    100.0%      0.0%
 flops     7 x     7 x    32              6265728       0.0%    100.0%      0.0%
 flops   138 x    36 x    36              6438528       0.0%    100.0%      0.0%
 flops    36 x    36 x   138              6438528       0.0%    100.0%      0.0%
 flops     7 x     4 x     8              6967296       0.0%    100.0%      0.0%
 flops     8 x     4 x     7              6967296       0.0%    100.0%      0.0%
 flops     7 x     7 x    36              7048944       0.0%    100.0%      0.0%
 flops     7 x     8 x    32             13934592       0.0%    100.0%      0.0%
 flops     8 x     7 x    32             13934592       0.0%    100.0%      0.0%
 flops     7 x     8 x    36             15676416       0.0%    100.0%      0.0%
 flops     8 x     7 x    36             15676416       0.0%    100.0%      0.0%
 flops     8 x     4 x     8             15925248       0.0%    100.0%      0.0%
 flops     8 x     8 x    32             32292864       0.0%    100.0%      0.0%
 flops    64 x    64 x    64             33554432       0.0%    100.0%      0.0%
 flops     8 x     8 x    36             36329472       0.0%    100.0%      0.0%
 flops   138 x    64 x    32             40697856       0.0%    100.0%      0.0%
 flops   138 x    32 x    64             40697856       0.0%    100.0%      0.0%
 flops    32 x    64 x   138             40697856       0.0%    100.0%      0.0%
 flops    64 x    32 x   138             40697856       0.0%    100.0%      0.0%
 flops   138 x    64 x    36             45785088       0.0%    100.0%      0.0%
 flops   138 x    36 x    64             45785088       0.0%    100.0%      0.0%
 flops    36 x    64 x   138             45785088       0.0%    100.0%      0.0%
 flops    64 x    36 x   138             45785088       0.0%    100.0%      0.0%
 flops     7 x     7 x    64             50125824       0.0%    100.0%      0.0%
 flops     7 x    32 x    32             56770560       0.0%    100.0%      0.0%
 flops   138 x    32 x   138             87754752       0.0%    100.0%      0.0%
 flops    32 x    32 x   138             98353152       0.0%    100.0%      0.0%
 flops   138 x    36 x   138             98724096       0.0%    100.0%      0.0%
 flops     7 x     8 x    64            111476736       0.0%    100.0%      0.0%
 flops     8 x     7 x    64            111476736       0.0%    100.0%      0.0%
 flops     8 x    32 x    32            129761280       0.0%    100.0%      0.0%
 flops     7 x    32 x     7            243855360       0.0%    100.0%      0.0%
 flops     8 x     8 x    64            258342912       0.0%    100.0%      0.0%
 flops    64 x    64 x   138            325582848       0.0%    100.0%      0.0%
 flops   138 x    64 x    64            325582848       0.0%    100.0%      0.0%
 flops     7 x    32 x     8            557383680       0.0%    100.0%      0.0%
 flops     8 x    32 x     7            557383680       0.0%    100.0%      0.0%
 flops   138 x    64 x   138            702038016       0.0%    100.0%      0.0%
 flops     8 x    32 x     8           1274019840       0.0%    100.0%      0.0%
 flops inhomo. stacks                           0       0.0%      0.0%      0.0%
 flops total                         5.623951E+09       0.0%    100.0%      0.0%
 flops max/rank                    188.208336E+06       0.0%    100.0%      0.0%
 matmuls inhomo. stacks                         0       0.0%      0.0%      0.0%
 matmuls total                             892368       0.0%    100.0%      0.0%
 number of processed stacks                 11508       0.0%    100.0%      0.0%
 average stack size                                     0.0      77.5       0.0
 marketing flops                     6.693270E+09
 -------------------------------------------------------------------------------
 # multiplications                             22
 max memory usage/rank             333.590528E+06
 # max total images/rank                        1
 # max 3D layers                                1
 # MPI messages exchanged                    7920
 MPI messages size (bytes):
  total size                       534.725120E+06
  min size                           0.000000E+00
  max size                         152.352000E+03
  average size                      67.515797E+03
 MPI breakdown and total messages size (bytes):
             size <=      128                 510                        0
       128 < size <=     8192                  35                   286720
      8192 < size <=    32768                1075                 25317760
     32768 < size <=   131072                4860                289733760
    131072 < size <=  4194304                1440                219386880
   4194304 < size <= 16777216                   0                        0
  16777216 < size                               0                        0
 -------------------------------------------------------------------------------
 -                                                                             -
 -                      DBCSR MESSAGE PASSING PERFORMANCE                      -
 -                                                                             -
 -------------------------------------------------------------------------------
 ROUTINE             CALLS      AVE VOLUME [Bytes]
 MP_Bcast               80                     12.
 MP_Allreduce          279                     19.
 MP_Alltoall           191                  30938.
 MP_ISend              524                  31525.
 MP_IRecv              524                  30563.
 -------------------------------------------------------------------------------

 -------------------------------------------------------------------------------
 -                                                                             -
 -                                GRID STATISTICS                              -
 -                                                                             -
 -------------------------------------------------------------------------------
 LP    KERNEL             BACKEND                              COUNT     PERCENT
 1     collocate general  REF                                  33264      29.82%
 2     collocate general  REF                                  19944      17.88%
 1     integrate general  REF                                  16632      14.91%
 0     collocate general  REF                                  16128      14.46%
 2     integrate general  REF                                   9972       8.94%
 0     integrate general  REF                                   8064       7.23%
 3     collocate general  REF                                   4752       4.26%
 3     integrate general  REF                                   2376       2.13%
 4     collocate general  REF                                    288       0.26%
 4     integrate general  REF                                    144       0.13%
 -------------------------------------------------------------------------------

 MEMORY| Estimated peak process memory [MiB]                                 320

 -------------------------------------------------------------------------------
 ----                             MULTIGRID INFO                            ----
 -------------------------------------------------------------------------------
 count for grid        1:           8100          cutoff [a.u.]          150.00
 count for grid        2:          48672          cutoff [a.u.]           50.00
 count for grid        3:          41076          cutoff [a.u.]           16.67
 count for grid        4:              0          cutoff [a.u.]            5.56
 total gridlevel count  :          97848

 -------------------------------------------------------------------------------
 -                                                                             -
 -                         MESSAGE PASSING PERFORMANCE                         -
 -                                                                             -
 -------------------------------------------------------------------------------

 ROUTINE             CALLS      AVE VOLUME [Bytes]
 MP_Group                4
 MP_Bcast              591                 255701.
 MP_Allreduce         1035                    741.
 MP_Sync                12
 MP_Alltoall            16                3861264.
 MP_ISendRecv          665                 384725.
 MP_Wait               665
 MP_Recv                10                 211968.
 -------------------------------------------------------------------------------


 -------------------------------------------------------------------------------
 -                                                                             -
 -                           R E F E R E N C E S                               -
 -                                                                             -
 -------------------------------------------------------------------------------
 
 CP2K version 10.0 (Development Version), the CP2K developers group (2022).
 CP2K is freely available from https://www.cp2k.org/ .

 Kuehne,Thomas D.; Iannuzzi,Marcella; Del Ben,Mauro;
 Rybkin,Vladimir V.; Seewald,Patrick; Stein,Frederick; Laino,Teodoro;
 Khaliullin,Rustam Z.; Schuett,Ole; Schiffmann,Florian; Golze,Dorothea;
 Wilhelm,Jan; Chulkov,Sergey; Bani-Hashemian,Mohammad Hossein;
 Weber,Valery; Borstnik,Urban; Taillefumier,Mathieu;
 Jakobovits,Alice Shoshana; Lazzaro,Alfio; Pabst,Hans; Mueller,Tiziano;
 Schade,Robert; Guidon,Manuel; Andermatt,Samuel; Holmberg,Nico;
 Schenter,Gregory K.; Hehn,Anna; Bussy,Augustin; Belleflamme,Fabian;
 Tabacchi,Gloria; Gloess,Andreas; Lass,Michael; Bethune,Iain;
 Mundy,Christopher J.; Plessl,Christian; Watkins,Matt;
 VandeVondele,Joost; Krack,Matthias; Hutter,Juerg. 
 The Journal of Chemical Physics, 152 (19), (2020). 
 CP2K: An electronic structure and molecular dynamics software package -
 Quickstep: Efficient and accurate electronic structure calculations.
 https://doi.org/10.1063/5.0007045

 Schuett, Ole; Messmer, Peter; Hutter, Juerg; VandeVondele, Joost. 
 Electronic Structure Calculations on Graphics Processing Units, John
 Wiley & Sons, Ltd, 173-190 (2016). 
 GPU-Accelerated Sparse Matrix-Matrix Multiplication for
 Linear Scaling Density Functional Theory.
 https://doi.org/10.1002/9781118670712.ch8

 Heinecke, A; Henry, G; Hutchinson, M; Pabst, H. 
 Proceedings of Intl. Supercomputing Conference, 981-991 (2016). 
 LIBXSMM: Accelerating Small Matrix Multiplications
 by Runtime Code Generation.
 https://doi.org/10.1109/SC.2016.83

 Borstnik, U; VandeVondele, J; Weber, V; Hutter, J. 
 PARALLEL COMPUTING, 40 (5-6), 47-58 (2014). 
 Sparse matrix multiplication: The distributed block-compressed sparse
 row library.
 https://doi.org/10.1016/j.parco.2014.03.012

 Hutter, J; Iannuzzi, M; Schiffmann, F; VandeVondele, J. 
 WIREs Comput Mol Sci., 4 (1), 15-25 (2014). 
 CP2K: atomistic simulations of condensed matter systems.
 https://doi.org/10.1002/wcms.1159

 Guidon, M; Hutter, J; VandeVondele, J. 
 JOURNAL OF CHEMICAL THEORY AND COMPUTATION, 5 (11), 3010-3021 (2009). 
 Robust Periodic Hartree-Fock Exchange for Large-Scale Simulations Using
 Gaussian Basis Sets.
 https://doi.org/10.1021/ct900494g

 Guidon, M; Schiffmann, F; Hutter, J; VandeVondele, J. 
 JOURNAL OF CHEMICAL PHYSICS, 128 (21), 214104 (2008). 
 Ab initio molecular dynamics using hybrid density functionals.
 https://doi.org/10.1063/1.2931945

 Krack, M. 
 THEORETICAL CHEMISTRY ACCOUNTS, 114 (1-3), 145-152 (2005). 
 Pseudopotentials for H to Kr optimized for gradient-corrected
 exchange-correlation functionals.
 https://doi.org/10.1007/s00214-005-0655-y

 VandeVondele, J; Krack, M; Mohamed, F; Parrinello, M; Chassaing, T;
 Hutter, J. COMPUTER PHYSICS COMMUNICATIONS, 167 (2), 103-128 (2005). 
 QUICKSTEP: Fast and accurate density functional calculations using a
 mixed Gaussian and plane waves approach.
 https://doi.org/10.1016/j.cpc.2004.12.014

 Frigo, M; Johnson, SG. 
 PROCEEDINGS OF THE IEEE, 93 (2), 216-231 (2005). 
 The design and implementation of FFTW3.
 https://doi.org/10.1109/JPROC.2004.840301

 VandeVondele, J; Hutter, J. 
 JOURNAL OF CHEMICAL PHYSICS, 118 (10), 4365-4369 (2003). 
 An efficient orbital transformation method for electronic structure
 calculations.
 https://doi.org/10.1063/1.1543154

 Hartwigsen, C; Goedecker, S; Hutter, J. 
 PHYSICAL REVIEW B, 58 (7), 3641-3662 (1998). 
 Relativistic separable dual-space Gaussian pseudopotentials from H to Rn.
 https://doi.org/10.1103/PhysRevB.58.3641

 Lippert, G; Hutter, J; Parrinello, M. 
 MOLECULAR PHYSICS, 92 (3), 477-487 (1997). 
 A hybrid Gaussian and plane wave density functional scheme.
 https://doi.org/10.1080/002689797170220

 Goedecker, S; Teter, M; Hutter, J. 
 PHYSICAL REVIEW B, 54 (3), 1703-1710 (1996). 
 Separable dual-space Gaussian pseudopotentials.
 https://doi.org/10.1103/PhysRevB.54.1703


 -------------------------------------------------------------------------------
 -                                                                             -
 -                                T I M I N G                                  -
 -                                                                             -
 -------------------------------------------------------------------------------
 SUBROUTINE                       CALLS  ASD         SELF TIME        TOTAL TIME
                                MAXIMUM       AVERAGE  MAXIMUM  AVERAGE  MAXIMUM
 CP2K                                 1  1.0    0.008    0.030    3.319    3.320
 qs_energies                          1  2.0    0.000    0.000    3.186    3.187
 scf_env_do_scf                       1  3.0    0.000    0.000    2.321    2.321
 init_scf_loop                        1  4.0    0.000    0.000    1.961    1.961
 qs_ks_update_qs_env                  2  5.0    0.000    0.000    1.885    1.886
 rebuild_ks_matrix                    1  6.0    0.000    0.000    1.884    1.884
 qs_ks_build_kohn_sham_matrix         1  7.0    0.000    0.000    1.884    1.884
 hfx_ks_matrix                        1  8.0    0.000    0.000    1.575    1.577
 integrate_four_center                1  9.0    0.013    0.376    1.575    1.576
 integrate_four_center_main           1 10.0    0.001    0.001    0.841    0.878
 integrate_four_center_bin           68 11.0    0.840    0.877    0.840    0.877
 rs_pw_transfer                      15  8.5    0.000    0.000    0.740    0.813
 mp_waitall_1                      2073 12.4    0.685    0.748    0.685    0.748
 qs_rho_update_rho                    2  5.0    0.000    0.000    0.604    0.605
 calculate_rho_elec                   2  6.0    0.001    0.001    0.604    0.605
 rs_pw_transfer_RS2PW_150             4  8.2    0.059    0.088    0.440    0.506
 density_rs2pw                        2  7.0    0.000    0.000    0.398    0.470
 mp_bcast_im                        329  7.1    0.403    0.414    0.403    0.414
 scf_env_do_scf_inner_loop            1  4.0    0.000    0.000    0.357    0.359
 init_scf_run                         1  3.0    0.000    0.000    0.348    0.348
 scf_env_initial_rho_setup            1  4.0    0.000    0.001    0.348    0.348
 grid_collocate_task_list             2  7.0    0.199    0.278    0.199    0.278
 sum_up_and_integrate                 1  8.0    0.000    0.000    0.234    0.267
 integrate_v_rspace                   1  9.0    0.000    0.000    0.234    0.267
 scf_post_calculation_gpw             1  3.0    0.000    0.000    0.265    0.266
 write_available_results              1  4.0    0.000    0.000    0.265    0.266
 write_mo_free_results                1  5.0    0.001    0.003    0.265    0.266
 qs_energies_init_hamiltonians        1  3.0    0.000    0.000    0.251    0.251
 rs_pw_transfer_PW2RS_150             2 10.0    0.029    0.047    0.193    0.209
 qs_env_update_s_mstruct              1  4.0    0.000    0.000    0.161    0.187
 calculate_rho_core                   1  5.0    0.003    0.004    0.157    0.183
 pw_transfer                         18  8.7    0.001    0.002    0.166    0.172
 integrate_four_center_load           1 10.0    0.000    0.000    0.170    0.171
 hfx_load_balance                     1 11.0    0.000    0.000    0.170    0.171
 fft_wrap_pw1pw2                     16  9.6    0.000    0.000    0.163    0.169
 potential_pw2rs                      1 10.0    0.000    0.000    0.158    0.159
 fft_wrap_pw1pw2_150                  7 10.1    0.008    0.013    0.141    0.147
 calculate_hirshfeld_normalizat       1  6.0    0.018    0.028    0.131    0.145
 dbcsr_multiply_generic              22  8.9    0.001    0.001    0.109    0.144
 fft3d_ps                            16 11.6    0.036    0.044    0.135    0.141
 mp_sum_l                           447  3.9    0.073    0.126    0.073    0.126
 hirshfeld_integration                1  6.0    0.013    0.020    0.117    0.117
 grid_integrate_task_list             1 10.0    0.075    0.109    0.075    0.109
 mp_alltoall_z22v                    16 13.6    0.087    0.099    0.087    0.099
 build_core_hamiltonian_matrix        1  4.0    0.000    0.000    0.084    0.095
 hfx_load_balance_bin                 1 12.0    0.071    0.083    0.071    0.083
 hfx_load_balance_count               1 12.0    0.071    0.083    0.071    0.083
 calc_screening_functions             1 10.0    0.024    0.024    0.079    0.081
 powell_optimize                  29079 11.0    0.074    0.076    0.074    0.076
 prepare_preconditioner               1  5.0    0.000    0.000    0.069    0.069
 make_preconditioner                  1  6.0    0.000    0.000    0.069    0.069
 yz_to_x                             10 12.1    0.005    0.008    0.063    0.069
 hfx_load_balance_dist                1 12.0    0.000    0.000    0.026    0.069
 rs_pw_transfer_RS2PW_50              2  9.0    0.004    0.006    0.058    0.069
 build_core_ppnl                      1  5.0    0.059    0.066    0.059    0.066
 mp_sum_d                           508  2.9    0.049    0.065    0.049    0.065
 mp_sync                             12 10.1    0.040    0.062    0.040    0.062
 multiply_cannon                     22  9.9    0.001    0.002    0.053    0.058
 multiply_cannon_loop                22 10.9    0.001    0.001    0.047    0.052
 qs_init_subsys                       1  2.0    0.001    0.001    0.051    0.051
 qs_scf_new_mos                       1  5.0    0.000    0.000    0.047    0.050
 qs_scf_loop_do_ot                    1  6.0    0.000    0.000    0.047    0.050
 make_full_single_inverse             1  7.0    0.000    0.000    0.049    0.050
 create_qs_kind_set                   1  2.0    0.000    0.000    0.048    0.049
 read_qs_kind                         2  3.0    0.011    0.015    0.048    0.049
 qs_env_setup                         1  3.0    0.000    0.000    0.048    0.049
 qs_env_rebuild_pw_env                2  3.5    0.000    0.000    0.048    0.049
 pw_env_rebuild                       1  5.0    0.000    0.000    0.048    0.049
 calculate_first_density_matrix       1  5.0    0.000    0.000    0.047    0.048
 ot_scf_mini                          1  7.0    0.000    0.000    0.044    0.044
 pw_grid_setup                        4  6.0    0.000    0.000    0.044    0.044
 pw_grid_setup_internal               4  7.0    0.001    0.002    0.044    0.044
 parser_read_line                  2695  4.0    0.001    0.002    0.037    0.039
 parser_read_line_low                 6  5.0    0.002    0.007    0.036    0.038
 x_to_yz                              6 13.5    0.004    0.006    0.033    0.037
 broadcast_input_information          6  6.0    0.000    0.000    0.035    0.037
 rs_pw_transfer_PW2RS_50              1 12.0    0.003    0.005    0.028    0.034
 -------------------------------------------------------------------------------

 The number of warnings for this run is : 1
 
 -------------------------------------------------------------------------------
  **** **** ******  **  PROGRAM ENDED AT                 2022-05-26 21:56:42.986
 ***** ** ***  *** **   PROGRAM RAN ON                                   tcopt11
 **    ****   ******    PROGRAM RAN BY                                   wilhelm
 ***** **    ** ** **   PROGRAM PROCESS ID                                 89777
  **** **  *******  **  PROGRAM STOPPED IN /data/wilhelm/55_check_HFX/6_HFX_MoS2
                                           _PERIODIC_XYZ/05_height_10A_E_
