 DBCSR| CPU Multiplication driver                                           XSMM
 DBCSR| Multrec recursion limit                                              512
 DBCSR| Multiplication stack size                                           1000
 DBCSR| Maximum elements for images                                    UNLIMITED
 DBCSR| Multiplicative factor virtual images                                   1
 DBCSR| Use multiplication densification                                       T
 DBCSR| Multiplication size stacks                                             3
 DBCSR| Use memory pool for CPU allocation                                     F
 DBCSR| Number of 3D layers                                               SINGLE
 DBCSR| Use MPI memory allocation                                              F
 DBCSR| Use RMA algorithm                                                      F
 DBCSR| Use Communication thread                                               T
 DBCSR| Communication thread load                                             87
 DBCSR| MPI: My node id                                                        0
 DBCSR| MPI: Number of nodes                                                  36
 DBCSR| OMP: Current number of threads                                         1
 DBCSR| OMP: Max number of threads                                             1
 DBCSR| Split modifier for TAS multiplication algorithm                  1.0E+00


  **** **** ******  **  PROGRAM STARTED AT               2022-05-26 21:35:54.795
 ***** ** ***  *** **   PROGRAM STARTED ON                               tcopt11
 **    ****   ******    PROGRAM STARTED BY                               wilhelm
 ***** **    ** ** **   PROGRAM PROCESS ID                                 86594
  **** **  *******  **  PROGRAM STARTED IN /data/wilhelm/55_check_HFX/5_HFX_MoS2
                                           _PERIODIC_XY/1_height_5A

 CP2K| version string:                   CP2K version 10.0 (Development Version)
 CP2K| source code revision number:                                  git:3d29584
 CP2K| cp2kflags: omp libint fftw3 libxc parallel mpi3 scalapack xsmm           
 CP2K| is freely available from                            https://www.cp2k.org/
 CP2K| Program compiled at                      Sun 22 May 2022 01:43:22 PM CEST
 CP2K| Program compiled on                                               tcopt11
 CP2K| Program compiled for                                                local
 CP2K| Data directory path                    /data/wilhelm/52_fix_HFX/cp2k/data
 CP2K| Input file name                                                    HF.inp

 GLOBAL| Force Environment number                                              1
 GLOBAL| Basis set file name                            ../../BASIS_Mo_S_minimal
 GLOBAL| Potential file name                                      GTH_POTENTIALS
 GLOBAL| MM Potential file name                                     MM_POTENTIAL
 GLOBAL| Coordinate file name                                      __STD_INPUT__
 GLOBAL| Method name                                                        CP2K
 GLOBAL| Project name                                                       MoS2
 GLOBAL| Run type                                                         ENERGY
 GLOBAL| FFT library                                                       FFTW3
 GLOBAL| Diagonalization library                                       ScaLAPACK
 GLOBAL| Orthonormality check for eigenvectors                          DISABLED
 GLOBAL| Matrix multiplication library                                 ScaLAPACK
 GLOBAL| All-to-all communication in single precision                          F
 GLOBAL| FFTs using library dependent lengths                                  F
 GLOBAL| Grid backend                                                       AUTO
 GLOBAL| Global print level                                               MEDIUM
 GLOBAL| MPI I/O enabled                                                       T
 GLOBAL| Total number of message passing processes                            36
 GLOBAL| Number of threads for this process                                    1
 GLOBAL| This output is from process                                           0
 GLOBAL| Stack size for threads created by OpenMP (OMP_STACKSIZE)        default
 GLOBAL| CPU model name                          AMD EPYC 7401 24-Core Processor
 GLOBAL| CPUID                                                              1002

 MEMORY| system memory details [Kb]
 MEMORY|                        rank 0           min           max       average
 MEMORY| MemTotal            263969112     263969112     263969112     263969112
 MEMORY| MemFree             209773692     209773692     209773692     209773692
 MEMORY| Buffers               1122412       1122412       1122412       1122412
 MEMORY| Cached               45454776      45454776      45454776      45454776
 MEMORY| Slab                  2850848       2850848       2850848       2850848
 MEMORY| SReclaimable          2288720       2288720       2288720       2288720
 MEMORY| MemLikelyFree       258639600     258639600     258639600     258639600


 *** Fundamental physical constants (SI units) ***

 *** Literature: B. J. Mohr and B. N. Taylor,
 ***             CODATA recommended values of the fundamental physical
 ***             constants: 2006, Web Version 5.1
 ***             http://physics.nist.gov/constants

 Speed of light in vacuum [m/s]                             2.99792458000000E+08
 Magnetic constant or permeability of vacuum [N/A**2]       1.25663706143592E-06
 Electric constant or permittivity of vacuum [F/m]          8.85418781762039E-12
 Planck constant (h) [J*s]                                  6.62606896000000E-34
 Planck constant (h-bar) [J*s]                              1.05457162825177E-34
 Elementary charge [C]                                      1.60217648700000E-19
 Electron mass [kg]                                         9.10938215000000E-31
 Electron g factor [ ]                                     -2.00231930436220E+00
 Proton mass [kg]                                           1.67262163700000E-27
 Fine-structure constant                                    7.29735253760000E-03
 Rydberg constant [1/m]                                     1.09737315685270E+07
 Avogadro constant [1/mol]                                  6.02214179000000E+23
 Boltzmann constant [J/K]                                   1.38065040000000E-23
 Atomic mass unit [kg]                                      1.66053878200000E-27
 Bohr radius [m]                                            5.29177208590000E-11

 *** Conversion factors ***

 [u] -> [a.u.]                                              1.82288848426455E+03
 [Angstrom] -> [Bohr] = [a.u.]                              1.88972613288564E+00
 [a.u.] = [Bohr] -> [Angstrom]                              5.29177208590000E-01
 [a.u.] -> [s]                                              2.41888432650478E-17
 [a.u.] -> [fs]                                             2.41888432650478E-02
 [a.u.] -> [J]                                              4.35974393937059E-18
 [a.u.] -> [N]                                              8.23872205491840E-08
 [a.u.] -> [K]                                              3.15774647902944E+05
 [a.u.] -> [kJ/mol]                                         2.62549961709828E+03
 [a.u.] -> [kcal/mol]                                       6.27509468713739E+02
 [a.u.] -> [Pa]                                             2.94210107994716E+13
 [a.u.] -> [bar]                                            2.94210107994716E+08
 [a.u.] -> [atm]                                            2.90362800883016E+08
 [a.u.] -> [eV]                                             2.72113838565563E+01
 [a.u.] -> [Hz]                                             6.57968392072181E+15
 [a.u.] -> [1/cm] (wave numbers)                            2.19474631370540E+05
 [a.u./Bohr**2] -> [1/cm]                                   5.14048714338585E+03
 

 CELL_TOP| Volume [angstrom^3]:                                      1546.764672
 CELL_TOP| Vector a [angstrom    18.900     0.000     0.000   |a| =    18.900000
 CELL_TOP| Vector b [angstrom    -9.450    16.368     0.000   |b| =    18.900000
 CELL_TOP| Vector c [angstrom     0.000     0.000     5.000   |c| =     5.000000
 CELL_TOP| Angle (b,c), alpha [degree]:                                90.000000
 CELL_TOP| Angle (a,c), beta  [degree]:                                90.000000
 CELL_TOP| Angle (a,b), gamma [degree]:                               120.000000
 CELL_TOP| Numerically orthorhombic:                                          NO

 CELL_UC| Volume [angstrom^3]:                                         42.965685
 CELL_UC| Vector a [angstrom]     3.150     0.000     0.000   |a| =     3.150000
 CELL_UC| Vector b [angstrom]    -1.575     2.728     0.000   |b| =     3.150000
 CELL_UC| Vector c [angstrom]     0.000     0.000     5.000   |c| =     5.000000
 CELL_UC| Angle (b,c), alpha [degree]:                                 90.000000
 CELL_UC| Angle (a,c), beta  [degree]:                                 90.000000
 CELL_UC| Angle (a,b), gamma [degree]:                                120.000000
 CELL_UC| Numerically orthorhombic:                                           NO

 GENERATE|  Preliminary Number of Bonds generated:                             0
 GENERATE|  Achieved consistency in connectivity generation.

 CELL| Volume [angstrom^3]:                                          1546.764672
 CELL| Vector a [angstrom]:      18.900     0.000     0.000   |a| =    18.900000
 CELL| Vector b [angstrom]:      -9.450    16.368     0.000   |b| =    18.900000
 CELL| Vector c [angstrom]:       0.000     0.000     5.000   |c| =     5.000000
 CELL| Angle (b,c), alpha [degree]:                                    90.000000
 CELL| Angle (a,c), beta  [degree]:                                    90.000000
 CELL| Angle (a,b), gamma [degree]:                                   120.000000
 CELL| Numerically orthorhombic:                                              NO

 CELL_REF| Volume [angstrom^3]:                                      1546.764672
 CELL_REF| Vector a [angstrom    18.900     0.000     0.000   |a| =    18.900000
 CELL_REF| Vector b [angstrom    -9.450    16.368     0.000   |b| =    18.900000
 CELL_REF| Vector c [angstrom     0.000     0.000     5.000   |c| =     5.000000
 CELL_REF| Angle (b,c), alpha [degree]:                                90.000000
 CELL_REF| Angle (a,c), beta  [degree]:                                90.000000
 CELL_REF| Angle (a,b), gamma [degree]:                               120.000000
 CELL_REF| Numerically orthorhombic:                                          NO

 *******************************************************************************
 *******************************************************************************
 **                                                                           **
 **     #####                         ##              ##                      **
 **    ##   ##            ##          ##              ##                      **
 **   ##     ##                       ##            ######                    **
 **   ##     ##  ##   ##  ##   #####  ##  ##   ####   ##    #####    #####    **
 **   ##     ##  ##   ##  ##  ##      ## ##   ##      ##   ##   ##  ##   ##   **
 **   ##  ## ##  ##   ##  ##  ##      ####     ###    ##   ######   ######    **
 **    ##  ###   ##   ##  ##  ##      ## ##      ##   ##   ##       ##        **
 **     #######   #####   ##   #####  ##  ##  ####    ##    #####   ##        **
 **           ##                                                    ##        **
 **                                                                           **
 **                                                ... make the atoms dance   **
 **                                                                           **
 **            Copyright (C) by CP2K developers group (2000-2022)             **
 **                      J. Chem. Phys. 152, 194103 (2020)                    **
 **                                                                           **
 *******************************************************************************

 DFT| Spin restricted Kohn-Sham (RKS) calculation                            RKS
 DFT| Multiplicity                                                             1
 DFT| Number of spin states                                                    1
 DFT| Charge                                                                   0
 DFT| Self-interaction correction (SIC)                                       NO
 DFT| Cutoffs: density                                              1.000000E-10
 DFT|          gradient                                             1.000000E-10
 DFT|          tau                                                  1.000000E-10
 DFT|          cutoff_smoothing_range                               0.000000E+00
 DFT| XC density smoothing                                                  NONE
 DFT| XC derivatives                                                          PW
 FUNCTIONAL| NO EXCHANGE-CORRELATION FUNCTIONAL USED.

 QS| Method:                                                                 GPW
 QS| Density plane wave grid type                        NON-SPHERICAL FULLSPACE
 QS| Number of grid levels:                                                    4
 QS| Density cutoff [a.u.]:                                                150.0
 QS| Multi grid cutoff [a.u.]: 1) grid level                               150.0
 QS|                           2) grid level                                50.0
 QS|                           3) grid level                                16.7
 QS|                           4) grid level                                 5.6
 QS| Grid level progression factor:                                          3.0
 QS| Relative density cutoff [a.u.]:                                        20.0
 QS| Interaction thresholds: eps_pgf_orb:                                1.0E-20
 QS|                         eps_filter_matrix:                          0.0E+00
 QS|                         eps_core_charge:                            1.0E-22
 QS|                         eps_rho_gspace:                             1.0E-20
 QS|                         eps_rho_rspace:                             1.0E-20
 QS|                         eps_gvg_rspace:                             1.0E-10
 QS|                         eps_ppl:                                    1.0E-02
 QS|                         eps_ppnl:                                   1.0E-12


 ATOMIC KIND INFORMATION

  1. Atomic kind: Mo                                    Number of atoms:      36

     Orbital Basis Set                                                   minimal

       Number of orbital shell sets:                                           3
       Number of orbital shells:                                               3
       Number of primitive Cartesian functions:                                3
       Number of Cartesian basis functions:                                    8
       Number of spherical basis functions:                                    7
       Norm type:                                                              2

       Normalised Cartesian orbitals:

                        Set   Shell   Orbital            Exponent    Coefficient

                          1       1    1s                0.400000       0.358472

                          2       1    1s                2.000000       1.198623

                          3       1    1dx2              1.000000       1.645923
                          3       1    1dxy              1.000000       2.850822
                          3       1    1dxz              1.000000       2.850822
                          3       1    1dy2              1.000000       1.645923
                          3       1    1dyz              1.000000       2.850822
                          3       1    1dz2              1.000000       1.645923

       Atomic covalent radius [Angstrom]:                                  1.300

       Atomic van der Waals radius [Angstrom]:                             1.670

     GTH Potential information for                                   GTH-PADE-q6

       Description:                       Goedecker-Teter-Hutter pseudopotential
                                           Goedecker et al., PRB 54, 1703 (1996)
                                          Hartwigsen et al., PRB 58, 3641 (1998)
                                                      Krack, TCA 114, 145 (2005)

       Gaussian exponent of the core charge distribution:               1.023330
       Electronic configuration (s p d ...):                           1   0   5

       Parameters of the local part of the GTH pseudopotential:

                          rloc        C1          C2          C3          C4
                        0.699000    7.995868

       Parameters of the non-local part of the GTH pseudopotential:

                   l      r(l)      h(i,j,l)

                   0    0.678126    1.289607   -0.386568
                                   -0.386568    0.998113
                   1    0.800771    0.301412   -0.313389
                                   -0.313389    0.741615
                   2    0.453384   -2.809708    3.007755
                                    3.007755   -6.820946

  2. Atomic kind: S                                     Number of atoms:      72

     Orbital Basis Set                                                   minimal

       Number of orbital shell sets:                                           4
       Number of orbital shells:                                               4
       Number of primitive Cartesian functions:                                4
       Number of Cartesian basis functions:                                    8
       Number of spherical basis functions:                                    8
       Norm type:                                                              2

       Normalised Cartesian orbitals:

                        Set   Shell   Orbital            Exponent    Coefficient

                          1       1    1s                0.400000       0.358472

                          2       1    1s                2.000000       1.198623

                          3       1    1px               0.300000       0.316477
                          3       1    1py               0.300000       0.316477
                          3       1    1pz               0.300000       0.316477

                          4       1    1px               0.800000       1.078456
                          4       1    1py               0.800000       1.078456
                          4       1    1pz               0.800000       1.078456

       Atomic covalent radius [Angstrom]:                                  1.020

       Atomic van der Waals radius [Angstrom]:                             1.800

     GTH Potential information for                                   GTH-PADE-q6

       Description:                       Goedecker-Teter-Hutter pseudopotential
                                           Goedecker et al., PRB 54, 1703 (1996)
                                          Hartwigsen et al., PRB 58, 3641 (1998)
                                                      Krack, TCA 114, 145 (2005)

       Gaussian exponent of the core charge distribution:               2.834467
       Electronic configuration (s p d ...):                               2   4

       Parameters of the local part of the GTH pseudopotential:

                          rloc        C1          C2          C3          C4
                        0.420000   -6.554492

       Parameters of the non-local part of the GTH pseudopotential:

                   l      r(l)      h(i,j,l)

                   0    0.361757    7.905303   -1.731881
                                   -1.731881    4.471698
                   1    0.405285    3.866579


 MOLECULE KIND INFORMATION


 All atoms are their own molecule, skipping detailed information


 TOTAL NUMBERS AND MAXIMUM NUMBERS

  Total number of            - Atomic kinds:                                   2
                             - Atoms:                                        108
                             - Shell sets:                                   396
                             - Shells:                                       396
                             - Primitive Cartesian functions:                396
                             - Cartesian basis functions:                    864
                             - Spherical basis functions:                    828

  Maximum angular momentum of- Orbital basis functions:                        2
                             - Local part of the GTH pseudopotential:          0
                             - Non-local part of the GTH pseudopotential:      4


 MODULE QUICKSTEP:  ATOMIC COORDINATES IN angstrom

 Atom  Kind  Element       X           Y           Z          Z(eff)       Mass
    1   1 Mo  42       0.000000    1.818650    3.075000       6.0000     95.9600
    2   2 S   16       0.000000    3.637310    1.488300       6.0000     32.0650
    3   2 S   16       0.000000    3.637310    4.661700       6.0000     32.0650
    4   1 Mo  42       3.150000    1.818650    3.075000       6.0000     95.9600
    5   2 S   16       3.150000    3.637310    1.488300       6.0000     32.0650
    6   2 S   16       3.150000    3.637310    4.661700       6.0000     32.0650
    7   1 Mo  42       6.300000    1.818650    3.075000       6.0000     95.9600
    8   2 S   16       6.300000    3.637310    1.488300       6.0000     32.0650
    9   2 S   16       6.300000    3.637310    4.661700       6.0000     32.0650
   10   1 Mo  42       9.450000    1.818650    3.075000       6.0000     95.9600
   11   2 S   16       9.450000    3.637310    1.488300       6.0000     32.0650
   12   2 S   16       9.450000    3.637310    4.661700       6.0000     32.0650
   13   1 Mo  42      12.600000    1.818650    3.075000       6.0000     95.9600
   14   2 S   16      12.600000    3.637310    1.488300       6.0000     32.0650
   15   2 S   16      12.600000    3.637310    4.661700       6.0000     32.0650
   16   1 Mo  42      15.750000    1.818650    3.075000       6.0000     95.9600
   17   2 S   16      15.750000    3.637310    1.488300       6.0000     32.0650
   18   2 S   16      15.750000    3.637310    4.661700       6.0000     32.0650
   19   1 Mo  42      -1.575000    4.546630    3.075000       6.0000     95.9600
   20   2 S   16      -1.575000    6.365290    1.488300       6.0000     32.0650
   21   2 S   16      -1.575000    6.365290    4.661700       6.0000     32.0650
   22   1 Mo  42       1.575000    4.546630    3.075000       6.0000     95.9600
   23   2 S   16       1.575000    6.365290    1.488300       6.0000     32.0650
   24   2 S   16       1.575000    6.365290    4.661700       6.0000     32.0650
   25   1 Mo  42       4.725000    4.546630    3.075000       6.0000     95.9600
   26   2 S   16       4.725000    6.365290    1.488300       6.0000     32.0650
   27   2 S   16       4.725000    6.365290    4.661700       6.0000     32.0650
   28   1 Mo  42       7.875000    4.546630    3.075000       6.0000     95.9600
   29   2 S   16       7.875000    6.365290    1.488300       6.0000     32.0650
   30   2 S   16       7.875000    6.365290    4.661700       6.0000     32.0650
   31   1 Mo  42      11.025000    4.546630    3.075000       6.0000     95.9600
   32   2 S   16      11.025000    6.365290    1.488300       6.0000     32.0650
   33   2 S   16      11.025000    6.365290    4.661700       6.0000     32.0650
   34   1 Mo  42      14.175000    4.546630    3.075000       6.0000     95.9600
   35   2 S   16      14.175000    6.365290    1.488300       6.0000     32.0650
   36   2 S   16      14.175000    6.365290    4.661700       6.0000     32.0650
   37   1 Mo  42      -3.150000    7.274610    3.075000       6.0000     95.9600
   38   2 S   16      -3.150000    9.093270    1.488300       6.0000     32.0650
   39   2 S   16      -3.150000    9.093270    4.661700       6.0000     32.0650
   40   1 Mo  42       0.000000    7.274610    3.075000       6.0000     95.9600
   41   2 S   16       0.000000    9.093270    1.488300       6.0000     32.0650
   42   2 S   16       0.000000    9.093270    4.661700       6.0000     32.0650
   43   1 Mo  42       3.150000    7.274610    3.075000       6.0000     95.9600
   44   2 S   16       3.150000    9.093270    1.488300       6.0000     32.0650
   45   2 S   16       3.150000    9.093270    4.661700       6.0000     32.0650
   46   1 Mo  42       6.300000    7.274610    3.075000       6.0000     95.9600
   47   2 S   16       6.300000    9.093270    1.488300       6.0000     32.0650
   48   2 S   16       6.300000    9.093270    4.661700       6.0000     32.0650
   49   1 Mo  42       9.450000    7.274610    3.075000       6.0000     95.9600
   50   2 S   16       9.450000    9.093270    1.488300       6.0000     32.0650
   51   2 S   16       9.450000    9.093270    4.661700       6.0000     32.0650
   52   1 Mo  42      12.600000    7.274610    3.075000       6.0000     95.9600
   53   2 S   16      12.600000    9.093270    1.488300       6.0000     32.0650
   54   2 S   16      12.600000    9.093270    4.661700       6.0000     32.0650
   55   1 Mo  42      -4.725000   10.002590    3.075000       6.0000     95.9600
   56   2 S   16      -4.725000   11.821250    1.488300       6.0000     32.0650
   57   2 S   16      -4.725000   11.821250    4.661700       6.0000     32.0650
   58   1 Mo  42      -1.575000   10.002590    3.075000       6.0000     95.9600
   59   2 S   16      -1.575000   11.821250    1.488300       6.0000     32.0650
   60   2 S   16      -1.575000   11.821250    4.661700       6.0000     32.0650
   61   1 Mo  42       1.575000   10.002590    3.075000       6.0000     95.9600
   62   2 S   16       1.575000   11.821250    1.488300       6.0000     32.0650
   63   2 S   16       1.575000   11.821250    4.661700       6.0000     32.0650
   64   1 Mo  42       4.725000   10.002590    3.075000       6.0000     95.9600
   65   2 S   16       4.725000   11.821250    1.488300       6.0000     32.0650
   66   2 S   16       4.725000   11.821250    4.661700       6.0000     32.0650
   67   1 Mo  42       7.875000   10.002590    3.075000       6.0000     95.9600
   68   2 S   16       7.875000   11.821250    1.488300       6.0000     32.0650
   69   2 S   16       7.875000   11.821250    4.661700       6.0000     32.0650
   70   1 Mo  42      11.025000   10.002590    3.075000       6.0000     95.9600
   71   2 S   16      11.025000   11.821250    1.488300       6.0000     32.0650
   72   2 S   16      11.025000   11.821250    4.661700       6.0000     32.0650
   73   1 Mo  42      -6.300000   12.730570    3.075000       6.0000     95.9600
   74   2 S   16      -6.300000   14.549230    1.488300       6.0000     32.0650
   75   2 S   16      -6.300000   14.549230    4.661700       6.0000     32.0650
   76   1 Mo  42      -3.150000   12.730570    3.075000       6.0000     95.9600
   77   2 S   16      -3.150000   14.549230    1.488300       6.0000     32.0650
   78   2 S   16      -3.150000   14.549230    4.661700       6.0000     32.0650
   79   1 Mo  42       0.000000   12.730570    3.075000       6.0000     95.9600
   80   2 S   16       0.000000   14.549230    1.488300       6.0000     32.0650
   81   2 S   16       0.000000   14.549230    4.661700       6.0000     32.0650
   82   1 Mo  42       3.150000   12.730570    3.075000       6.0000     95.9600
   83   2 S   16       3.150000   14.549230    1.488300       6.0000     32.0650
   84   2 S   16       3.150000   14.549230    4.661700       6.0000     32.0650
   85   1 Mo  42       6.300000   12.730570    3.075000       6.0000     95.9600
   86   2 S   16       6.300000   14.549230    1.488300       6.0000     32.0650
   87   2 S   16       6.300000   14.549230    4.661700       6.0000     32.0650
   88   1 Mo  42       9.450000   12.730570    3.075000       6.0000     95.9600
   89   2 S   16       9.450000   14.549230    1.488300       6.0000     32.0650
   90   2 S   16       9.450000   14.549230    4.661700       6.0000     32.0650
   91   1 Mo  42      -7.875000   15.458550    3.075000       6.0000     95.9600
   92   2 S   16      -7.875000   17.277210    1.488300       6.0000     32.0650
   93   2 S   16      -7.875000   17.277210    4.661700       6.0000     32.0650
   94   1 Mo  42      -4.725000   15.458550    3.075000       6.0000     95.9600
   95   2 S   16      -4.725000   17.277210    1.488300       6.0000     32.0650
   96   2 S   16      -4.725000   17.277210    4.661700       6.0000     32.0650
   97   1 Mo  42      -1.575000   15.458550    3.075000       6.0000     95.9600
   98   2 S   16      -1.575000   17.277210    1.488300       6.0000     32.0650
   99   2 S   16      -1.575000   17.277210    4.661700       6.0000     32.0650
  100   1 Mo  42       1.575000   15.458550    3.075000       6.0000     95.9600
  101   2 S   16       1.575000   17.277210    1.488300       6.0000     32.0650
  102   2 S   16       1.575000   17.277210    4.661700       6.0000     32.0650
  103   1 Mo  42       4.725000   15.458550    3.075000       6.0000     95.9600
  104   2 S   16       4.725000   17.277210    1.488300       6.0000     32.0650
  105   2 S   16       4.725000   17.277210    4.661700       6.0000     32.0650
  106   1 Mo  42       7.875000   15.458550    3.075000       6.0000     95.9600
  107   2 S   16       7.875000   17.277210    1.488300       6.0000     32.0650
  108   2 S   16       7.875000   17.277210    4.661700       6.0000     32.0650




 SCF PARAMETERS         Density guess:                                   RESTART
                        --------------------------------------------------------
                        max_scf:                                              40
                        max_scf_history:                                       0
                        max_diis:                                              4
                        --------------------------------------------------------
                        eps_scf:                                        1.00E-05
                        eps_scf_history:                                0.00E+00
                        eps_diis:                                       1.00E-01
                        eps_eigval:                                     1.00E-05
                        --------------------------------------------------------
                        level_shift [a.u.]:                             0.000000
                        --------------------------------------------------------
                        Outer loop SCF in use 
                        No variables optimised in outer loop
                        eps_scf                                         1.00E-05
                        max_scf                                               50
                        No outer loop optimization
                        step_size                                       5.00E-01

 PW_GRID| Information for grid number                                          1
 PW_GRID| Grid distributed over                                    36 processors
 PW_GRID| Real space group dimensions                                    36    1
 PW_GRID| the grid is blocked:                                                NO
 PW_GRID| Cutoff [a.u.]                                                    150.0
 PW_GRID| spherical cutoff:                                                   NO
 PW_GRID|   Bounds   1           -100      99                Points:         200
 PW_GRID|   Bounds   2           -100      99                Points:         200
 PW_GRID|   Bounds   3            -27      26                Points:          54
 PW_GRID| Volume element (a.u.^3)  0.4832E-02     Volume (a.u.^3)     10438.0855
 PW_GRID| Grid span                                                    FULLSPACE
 PW_GRID|   Distribution                         Average         Max         Min
 PW_GRID|   G-Vectors                            60000.0       60000       60000
 PW_GRID|   G-Rays                                 300.0         300         300
 PW_GRID|   Real Space Points                    60000.0       64800       54000

 PW_GRID| Information for grid number                                          2
 PW_GRID| Number of the reference grid                                         1
 PW_GRID| Grid distributed over                                    36 processors
 PW_GRID| Real space group dimensions                                    36    1
 PW_GRID| the grid is blocked:                                                NO
 PW_GRID| Cutoff [a.u.]                                                     50.0
 PW_GRID| spherical cutoff:                                                   NO
 PW_GRID|   Bounds   1            -60      59                Points:         120
 PW_GRID|   Bounds   2            -60      59                Points:         120
 PW_GRID|   Bounds   3            -16      15                Points:          32
 PW_GRID| Volume element (a.u.^3)  0.2265E-01     Volume (a.u.^3)     10438.0855
 PW_GRID| Grid span                                                    FULLSPACE
 PW_GRID|   Distribution                         Average         Max         Min
 PW_GRID|   G-Vectors                            12800.0       14040        9600
 PW_GRID|   G-Rays                                 106.7         117          80
 PW_GRID|   Real Space Points                    12800.0       15360       11520

 PW_GRID| Information for grid number                                          3
 PW_GRID| Number of the reference grid                                         1
 PW_GRID| Grid distributed over                                    36 processors
 PW_GRID| Real space group dimensions                                    36    1
 PW_GRID| the grid is blocked:                                                NO
 PW_GRID| Cutoff [a.u.]                                                     16.7
 PW_GRID| spherical cutoff:                                                   NO
 PW_GRID|   Bounds   1            -36      35                Points:          72
 PW_GRID|   Bounds   2            -36      35                Points:          72
 PW_GRID|   Bounds   3             -9       8                Points:          18
 PW_GRID| Volume element (a.u.^3)  0.1119         Volume (a.u.^3)     10438.0855
 PW_GRID| Grid span                                                    FULLSPACE
 PW_GRID|   Distribution                         Average         Max         Min
 PW_GRID|   G-Vectors                             2592.0        2880        2304
 PW_GRID|   G-Rays                                  36.0          40          32
 PW_GRID|   Real Space Points                     2592.0        2592        2592

 PW_GRID| Information for grid number                                          4
 PW_GRID| Number of the reference grid                                         1
 PW_GRID| Grid distributed over                                    36 processors
 PW_GRID| Real space group dimensions                                    36    1
 PW_GRID| the grid is blocked:                                                NO
 PW_GRID| Cutoff [a.u.]                                                      5.6
 PW_GRID| spherical cutoff:                                                   NO
 PW_GRID|   Bounds   1            -20      19                Points:          40
 PW_GRID|   Bounds   2            -20      19                Points:          40
 PW_GRID|   Bounds   3             -6       5                Points:          12
 PW_GRID| Volume element (a.u.^3)  0.5437         Volume (a.u.^3)     10438.0855
 PW_GRID| Grid span                                                    FULLSPACE
 PW_GRID|   Distribution                         Average         Max         Min
 PW_GRID|   G-Vectors                              533.3         640         360
 PW_GRID|   G-Rays                                  13.3          16           9
 PW_GRID|   Real Space Points                      533.3         960         480

 POISSON| Solver                                                        PERIODIC
 POISSON| Periodicity                                                        XYZ

 RS_GRID| Information for grid number                                          1
 RS_GRID|   Bounds   1           -100      99                Points:         200
 RS_GRID|   Bounds   2           -100      99                Points:         200
 RS_GRID|   Bounds   3            -27      26                Points:          54
 RS_GRID| Real space fully replicated
 RS_GRID| Group size                                                           1

 RS_GRID| Information for grid number                                          2
 RS_GRID|   Bounds   1            -60      59                Points:         120
 RS_GRID|   Bounds   2            -60      59                Points:         120
 RS_GRID|   Bounds   3            -16      15                Points:          32
 RS_GRID| Real space fully replicated
 RS_GRID| Group size                                                           1

 RS_GRID| Information for grid number                                          3
 RS_GRID|   Bounds   1            -36      35                Points:          72
 RS_GRID|   Bounds   2            -36      35                Points:          72
 RS_GRID|   Bounds   3             -9       8                Points:          18
 RS_GRID| Real space fully replicated
 RS_GRID| Group size                                                           1

 RS_GRID| Information for grid number                                          4
 RS_GRID|   Bounds   1            -20      19                Points:          40
 RS_GRID|   Bounds   2            -20      19                Points:          40
 RS_GRID|   Bounds   3             -6       5                Points:          12
 RS_GRID| Real space fully replicated
 RS_GRID| Group size                                                           1

 *** WARNING in hfx_types.F:1969 :: Periodic Hartree Fock calculation      ***
 *** requested with use of a truncated or shortrange potential. The cutoff ***
 *** radius is larger than half the minimal cell dimension. This may lead  ***
 *** to unphysical total energies. Reduce the cutoff radius in order to    ***
 *** avoid possible problems.                                              ***


  HFX_INFO| Replica ID:                                                        1
  HFX_INFO| FRACTION:                                               1.0000000000
  HFX_INFO| Interaction Potential:                                     TRUNCATED
  HFX_INFO| Cutoff Radius [angstrom]:                               9.0000000000
  HFX_INFO| EPS_SCHWARZ:                                                 1.0E-06
  HFX_INFO| EPS_SCHWARZ_FORCES                                           1.0E-06
  HFX_INFO| EPS_STORAGE_SCALING:                                         1.0E-01
  HFX_INFO| NBINS:                                                            64
  HFX_INFO| BLOCK_SIZE:                                                        2
  HFX_INFO| NUMBER_OF_SHELLS:                                               AUTO
  HFX_INFO| Number of periodic shells considered:                             -1
  HFX_INFO| Number of periodic cells considered:                              49


 Number of electrons:                                                        648
 Number of occupied orbitals:                                                324
 Number of molecular orbitals:                                               324

 Number of orbital functions:                                                828
 Number of independent orbital functions:                                    828

 Extrapolation method: initial_guess


 SCF WAVEFUNCTION OPTIMIZATION

  ----------------------------------- OT ---------------------------------------
  Minimizer      : CG                  : conjugate gradient
  Preconditioner : FULL_SINGLE_INVERSE : inversion of 
                                         H + eS - 2*(Sc)(c^T*H*c+const)(Sc)^T
  Precond_solver : DEFAULT
  Line search    : 2PNT                : 2 energies, one gradient
  stepsize       :    0.08000000                  energy_gap     :    0.08000000
  eps_taylor     :   0.10000E-15                  max_taylor     :             4
  ----------------------------------- OT ---------------------------------------

  Step     Update method      Time    Convergence         Total energy    Change
  ------------------------------------------------------------------------------

  HFX_MEM_INFO| Est. max. program size before HFX [MiB]:                     217
  HFX_MEM_INFO| Number of cart. primitive ERI's calculated:           2202630376
  HFX_MEM_INFO| Number of sph. ERI's calculated:                       292403573
  HFX_MEM_INFO| Number of sph. ERI's stored in-core:                   132978074
  HFX_MEM_INFO| Number of sph. ERI's stored on disk:                           0
  HFX_MEM_INFO| Number of sph. ERI's calculated on the fly:                    0
  HFX_MEM_INFO| Total memory consumption ERI's RAM [MiB]:                    143
  HFX_MEM_INFO| Whereof max-vals [MiB]:                                        7
  HFX_MEM_INFO| Total compression factor ERI's RAM:                         7.12
  HFX_MEM_INFO| Total memory consumption ERI's disk [MiB]:                     0
  HFX_MEM_INFO| Total compression factor ERI's disk:                        0.00
  HFX_MEM_INFO| Size of density/Fock matrix [MiB]:                             4
  HFX_MEM_INFO| Size of buffers [MiB]:                                         1
  HFX_MEM_INFO| Number of periodic image cells considered:                    49
  HFX_MEM_INFO| Est. max. program size after HFX  [MiB]:                     257

     1 OT CG       0.80E-01    2.6     0.01755333     -1007.8486670620 -1.01E+03
     2 OT LS       0.22E+00    0.4                    -1013.2705025759
     3 OT CG       0.22E+00    0.6     0.00576759     -1016.5744917922 -8.73E+00
     4 OT LS       0.25E+00    0.4                    -1017.5137454311
     5 OT CG       0.25E+00    0.6     0.00356559     -1017.5209688990 -9.46E-01
     6 OT LS       0.26E+00    0.4                    -1017.9502974703
     7 OT CG       0.26E+00    0.6     0.00163377     -1017.9504605406 -4.29E-01
     8 OT LS       0.40E+00    0.4                    -1018.0745838049
     9 OT CG       0.40E+00    0.6     0.00101868     -1018.0923083399 -1.42E-01
    10 OT LS       0.19E+00    0.4                    -1018.0878096405
    11 OT CG       0.19E+00    0.6     0.00046834     -1018.1187216200 -2.64E-02
    12 OT LS       0.26E+00    0.4                    -1018.1257752586
    13 OT CG       0.26E+00    0.6     0.00018100     -1018.1262596745 -7.54E-03
    14 OT LS       0.19E+00    0.4                    -1018.1269697086
    15 OT CG       0.19E+00    0.6     0.00010672     -1018.1270813072 -8.22E-04
    16 OT LS       0.26E+00    0.4                    -1018.1274439230
    17 OT CG       0.26E+00    0.6     0.00005663     -1018.1274724676 -3.91E-04
    18 OT LS       0.27E+00    0.4                    -1018.1275882168
    19 OT CG       0.27E+00    0.6     0.00004694     -1018.1275885200 -1.16E-04
    20 OT LS       0.21E+00    0.4                    -1018.1276452587
    21 OT CG       0.21E+00    0.6     0.00002190     -1018.1276504123 -6.19E-05
    22 OT LS       0.25E+00    0.4                    -1018.1276662691
    23 OT CG       0.25E+00    0.6     0.00001441     -1018.1276667804 -1.64E-05
    24 OT LS       0.19E+00    0.4                    -1018.1276714313
    25 OT CG       0.19E+00    0.6     0.00000803     -1018.1276720528 -5.27E-06

  *** SCF run converged in    25 steps ***


  Electronic density on regular grids:       -648.0000000000        0.0000000000
  Core density on regular grids:              648.0000000000        0.0000000000
  Total charge density on r-space grids:        0.0000000000
  Total charge density g-space grids:          -0.0000000000

  Overlap energy of the core charge distribution:               0.00003919135878
  Self energy of the core charge distribution:              -2263.95339448397044
  Core Hamiltonian energy:                                    769.65854545044908
  Hartree energy:                                             824.08791501405585
  Exchange-correlation energy:                                  0.00000000000000
  Hartree-Fock Exchange energy:                              -347.92077722471839

  Total energy:                                             -1018.12767205282535

  outer SCF iter =    1 RMS gradient =   0.80E-05 energy =      -1018.1276720528
  outer SCF loop converged in   1 iterations or   25 steps


 !-----------------------------------------------------------------------------!
                     Mulliken Population Analysis

 #  Atom  Element  Kind  Atomic population                           Net charge
       1     Mo       1          2.937184                              3.062816
       2     S        2          7.530206                             -1.530206
       3     S        2          7.530207                             -1.530207
       4     Mo       1          2.937500                              3.062500
       5     S        2          7.532647                             -1.532647
       6     S        2          7.532642                             -1.532642
       7     Mo       1          2.937156                              3.062844
       8     S        2          7.529660                             -1.529660
       9     S        2          7.529659                             -1.529659
      10     Mo       1          2.937769                              3.062231
      11     S        2          7.531149                             -1.531149
      12     S        2          7.531146                             -1.531146
      13     Mo       1          2.937720                              3.062280
      14     S        2          7.531983                             -1.531983
      15     S        2          7.531983                             -1.531983
      16     Mo       1          2.937716                              3.062284
      17     S        2          7.533148                             -1.533148
      18     S        2          7.533125                             -1.533125
      19     Mo       1          2.938285                              3.061715
      20     S        2          7.532634                             -1.532634
      21     S        2          7.532637                             -1.532637
      22     Mo       1          2.937507                              3.062493
      23     S        2          7.530722                             -1.530722
      24     S        2          7.530721                             -1.530721
      25     Mo       1          2.937622                              3.062378
      26     S        2          7.531281                             -1.531281
      27     S        2          7.531283                             -1.531283
      28     Mo       1          2.937491                              3.062509
      29     S        2          7.530687                             -1.530687
      30     S        2          7.530682                             -1.530682
      31     Mo       1          2.937501                              3.062499
      32     S        2          7.530405                             -1.530405
      33     S        2          7.530403                             -1.530403
      34     Mo       1          2.937642                              3.062358
      35     S        2          7.530634                             -1.530634
      36     S        2          7.530634                             -1.530634
      37     Mo       1          2.937485                              3.062515
      38     S        2          7.529738                             -1.529738
      39     S        2          7.529728                             -1.529728
      40     Mo       1          2.938008                              3.061992
      41     S        2          7.531060                             -1.531060
      42     S        2          7.531059                             -1.531059
      43     Mo       1          2.937570                              3.062430
      44     S        2          7.531633                             -1.531633
      45     S        2          7.531631                             -1.531631
      46     Mo       1          2.937525                              3.062475
      47     S        2          7.530779                             -1.530779
      48     S        2          7.530781                             -1.530781
      49     Mo       1          2.937941                              3.062059
      50     S        2          7.532104                             -1.532104
      51     S        2          7.532100                             -1.532100
      52     Mo       1          2.937213                              3.062787
      53     S        2          7.530186                             -1.530186
      54     S        2          7.530177                             -1.530177
      55     Mo       1          2.937245                              3.062755
      56     S        2          7.531742                             -1.531742
      57     S        2          7.531742                             -1.531742
      58     Mo       1          2.937113                              3.062887
      59     S        2          7.532387                             -1.532387
      60     S        2          7.532385                             -1.532385
      61     Mo       1          2.937383                              3.062617
      62     S        2          7.531551                             -1.531551
      63     S        2          7.531553                             -1.531553
      64     Mo       1          2.937504                              3.062496
      65     S        2          7.532004                             -1.532004
      66     S        2          7.532003                             -1.532003
      67     Mo       1          2.937750                              3.062250
      68     S        2          7.530471                             -1.530471
      69     S        2          7.530470                             -1.530470
      70     Mo       1          2.937930                              3.062070
      71     S        2          7.530458                             -1.530458
      72     S        2          7.530449                             -1.530449
      73     Mo       1          2.938015                              3.061985
      74     S        2          7.532676                             -1.532676
      75     S        2          7.532673                             -1.532673
      76     Mo       1          2.937564                              3.062436
      77     S        2          7.531075                             -1.531075
      78     S        2          7.531069                             -1.531069
      79     Mo       1          2.938126                              3.061874
      80     S        2          7.531816                             -1.531816
      81     S        2          7.531818                             -1.531818
      82     Mo       1          2.937227                              3.062773
      83     S        2          7.530032                             -1.530032
      84     S        2          7.530029                             -1.530029
      85     Mo       1          2.937620                              3.062380
      86     S        2          7.531386                             -1.531386
      87     S        2          7.531387                             -1.531387
      88     Mo       1          2.937401                              3.062599
      89     S        2          7.530733                             -1.530733
      90     S        2          7.530732                             -1.530732
      91     Mo       1          2.937969                              3.062031
      92     S        2          7.531651                             -1.531651
      93     S        2          7.531653                             -1.531653
      94     Mo       1          2.937714                              3.062286
      95     S        2          7.530672                             -1.530672
      96     S        2          7.530671                             -1.530671
      97     Mo       1          2.937610                              3.062390
      98     S        2          7.530873                             -1.530873
      99     S        2          7.530868                             -1.530868
     100     Mo       1          2.937897                              3.062103
     101     S        2          7.532163                             -1.532163
     102     S        2          7.532167                             -1.532167
     103     Mo       1          2.937027                              3.062973
     104     S        2          7.530179                             -1.530179
     105     S        2          7.530171                             -1.530171
     106     Mo       1          2.937671                              3.062329
     107     S        2          7.530719                             -1.530719
     108     S        2          7.530718                             -1.530718
 # Total charge                            648.000000                  0.000000

 !-----------------------------------------------------------------------------!

 !-----------------------------------------------------------------------------!
                           Hirshfeld Charges

  #Atom  Element  Kind  Ref Charge     Population                    Net charge
      1       Mo     1       6.000          4.710                         1.290
      2       S      2       6.000          6.644                        -0.644
      3       S      2       6.000          6.644                        -0.644
      4       Mo     1       6.000          4.710                         1.290
      5       S      2       6.000          6.647                        -0.647
      6       S      2       6.000          6.647                        -0.647
      7       Mo     1       6.000          4.710                         1.290
      8       S      2       6.000          6.643                        -0.643
      9       S      2       6.000          6.643                        -0.643
     10       Mo     1       6.000          4.710                         1.290
     11       S      2       6.000          6.645                        -0.645
     12       S      2       6.000          6.645                        -0.645
     13       Mo     1       6.000          4.710                         1.290
     14       S      2       6.000          6.646                        -0.646
     15       S      2       6.000          6.646                        -0.646
     16       Mo     1       6.000          4.710                         1.290
     17       S      2       6.000          6.648                        -0.648
     18       S      2       6.000          6.648                        -0.648
     19       Mo     1       6.000          4.710                         1.290
     20       S      2       6.000          6.647                        -0.647
     21       S      2       6.000          6.647                        -0.647
     22       Mo     1       6.000          4.710                         1.290
     23       S      2       6.000          6.645                        -0.645
     24       S      2       6.000          6.645                        -0.645
     25       Mo     1       6.000          4.710                         1.290
     26       S      2       6.000          6.645                        -0.645
     27       S      2       6.000          6.645                        -0.645
     28       Mo     1       6.000          4.710                         1.290
     29       S      2       6.000          6.644                        -0.644
     30       S      2       6.000          6.644                        -0.644
     31       Mo     1       6.000          4.710                         1.290
     32       S      2       6.000          6.644                        -0.644
     33       S      2       6.000          6.644                        -0.644
     34       Mo     1       6.000          4.710                         1.290
     35       S      2       6.000          6.644                        -0.644
     36       S      2       6.000          6.644                        -0.644
     37       Mo     1       6.000          4.710                         1.290
     38       S      2       6.000          6.643                        -0.643
     39       S      2       6.000          6.643                        -0.643
     40       Mo     1       6.000          4.710                         1.290
     41       S      2       6.000          6.645                        -0.645
     42       S      2       6.000          6.645                        -0.645
     43       Mo     1       6.000          4.710                         1.290
     44       S      2       6.000          6.646                        -0.646
     45       S      2       6.000          6.646                        -0.646
     46       Mo     1       6.000          4.710                         1.290
     47       S      2       6.000          6.645                        -0.645
     48       S      2       6.000          6.645                        -0.645
     49       Mo     1       6.000          4.710                         1.290
     50       S      2       6.000          6.647                        -0.647
     51       S      2       6.000          6.647                        -0.647
     52       Mo     1       6.000          4.710                         1.290
     53       S      2       6.000          6.643                        -0.643
     54       S      2       6.000          6.643                        -0.643
     55       Mo     1       6.000          4.710                         1.290
     56       S      2       6.000          6.646                        -0.646
     57       S      2       6.000          6.646                        -0.646
     58       Mo     1       6.000          4.710                         1.290
     59       S      2       6.000          6.647                        -0.647
     60       S      2       6.000          6.647                        -0.647
     61       Mo     1       6.000          4.710                         1.290
     62       S      2       6.000          6.646                        -0.646
     63       S      2       6.000          6.646                        -0.646
     64       Mo     1       6.000          4.710                         1.290
     65       S      2       6.000          6.646                        -0.646
     66       S      2       6.000          6.646                        -0.646
     67       Mo     1       6.000          4.710                         1.290
     68       S      2       6.000          6.644                        -0.644
     69       S      2       6.000          6.644                        -0.644
     70       Mo     1       6.000          4.710                         1.290
     71       S      2       6.000          6.644                        -0.644
     72       S      2       6.000          6.644                        -0.644
     73       Mo     1       6.000          4.710                         1.290
     74       S      2       6.000          6.647                        -0.647
     75       S      2       6.000          6.647                        -0.647
     76       Mo     1       6.000          4.710                         1.290
     77       S      2       6.000          6.645                        -0.645
     78       S      2       6.000          6.645                        -0.645
     79       Mo     1       6.000          4.710                         1.290
     80       S      2       6.000          6.646                        -0.646
     81       S      2       6.000          6.646                        -0.646
     82       Mo     1       6.000          4.710                         1.290
     83       S      2       6.000          6.643                        -0.643
     84       S      2       6.000          6.643                        -0.643
     85       Mo     1       6.000          4.710                         1.290
     86       S      2       6.000          6.645                        -0.645
     87       S      2       6.000          6.645                        -0.645
     88       Mo     1       6.000          4.710                         1.290
     89       S      2       6.000          6.644                        -0.644
     90       S      2       6.000          6.644                        -0.644
     91       Mo     1       6.000          4.710                         1.290
     92       S      2       6.000          6.646                        -0.646
     93       S      2       6.000          6.646                        -0.646
     94       Mo     1       6.000          4.710                         1.290
     95       S      2       6.000          6.644                        -0.644
     96       S      2       6.000          6.644                        -0.644
     97       Mo     1       6.000          4.710                         1.290
     98       S      2       6.000          6.645                        -0.645
     99       S      2       6.000          6.645                        -0.645
    100       Mo     1       6.000          4.710                         1.290
    101       S      2       6.000          6.647                        -0.647
    102       S      2       6.000          6.647                        -0.647
    103       Mo     1       6.000          4.710                         1.290
    104       S      2       6.000          6.643                        -0.643
    105       S      2       6.000          6.643                        -0.643
    106       Mo     1       6.000          4.710                         1.290
    107       S      2       6.000          6.644                        -0.644
    108       S      2       6.000          6.644                        -0.644

  Total Charge                                                            0.000
 !-----------------------------------------------------------------------------!

 ENERGY| Total FORCE_EVAL ( QS ) energy [a.u.]:            -1018.127672052825346

 -------------------------------------------------------------------------------
 -                                                                             -
 -                                DBCSR STATISTICS                             -
 -                                                                             -
 -------------------------------------------------------------------------------
 COUNTER                                    TOTAL       BLAS       SMM       ACC
 flops     7 x     4 x     4                16128       0.0%    100.0%      0.0%
 flops     4 x     4 x   138                26496       0.0%    100.0%      0.0%
 flops     8 x     4 x     4                36864       0.0%    100.0%      0.0%
 flops     7 x    32 x     4               645120       0.0%    100.0%      0.0%
 flops     7 x     4 x    32               645120       0.0%    100.0%      0.0%
 flops     4 x    32 x   138              1059840       0.0%    100.0%      0.0%
 flops    32 x     4 x   138              1059840       0.0%    100.0%      0.0%
 flops     8 x    32 x     4              1474560       0.0%    100.0%      0.0%
 flops     8 x     4 x    32              1474560       0.0%    100.0%      0.0%
 flops    32 x    32 x    32              8912896       0.0%    100.0%      0.0%
 flops    32 x    32 x    36             10027008       0.0%    100.0%      0.0%
 flops    32 x    36 x    32             10027008       0.0%    100.0%      0.0%
 flops    36 x    32 x    32             10027008       0.0%    100.0%      0.0%
 flops    32 x    36 x    36             11280384       0.0%    100.0%      0.0%
 flops    36 x    32 x    36             11280384       0.0%    100.0%      0.0%
 flops    36 x    36 x    32             11280384       0.0%    100.0%      0.0%
 flops    36 x    36 x    36             12690432       0.0%    100.0%      0.0%
 flops     7 x     4 x     7             21337344       0.0%    100.0%      0.0%
 flops     7 x     4 x     8             48771072       0.0%    100.0%      0.0%
 flops     8 x     4 x     7             48771072       0.0%    100.0%      0.0%
 flops     7 x     7 x    32             56391552       0.0%    100.0%      0.0%
 flops     7 x    32 x    32             56770560       0.0%    100.0%      0.0%
 flops     7 x     7 x    36             63440496       0.0%    100.0%      0.0%
 flops    32 x    32 x    64             71303168       0.0%    100.0%      0.0%
 flops    32 x    64 x    32             71303168       0.0%    100.0%      0.0%
 flops    64 x    32 x    32             71303168       0.0%    100.0%      0.0%
 flops    32 x    36 x    64             80216064       0.0%    100.0%      0.0%
 flops    32 x    64 x    36             80216064       0.0%    100.0%      0.0%
 flops    36 x    32 x    64             80216064       0.0%    100.0%      0.0%
 flops    36 x    64 x    32             80216064       0.0%    100.0%      0.0%
 flops    64 x    32 x    36             80216064       0.0%    100.0%      0.0%
 flops    64 x    36 x    32             80216064       0.0%    100.0%      0.0%
 flops    36 x    36 x    64             90243072       0.0%    100.0%      0.0%
 flops    36 x    64 x    36             90243072       0.0%    100.0%      0.0%
 flops    64 x    36 x    36             90243072       0.0%    100.0%      0.0%
 flops     8 x     4 x     8            111476736       0.0%    100.0%      0.0%
 flops    32 x    36 x   138            120185856       0.0%    100.0%      0.0%
 flops    36 x    32 x   138            120185856       0.0%    100.0%      0.0%
 flops     7 x     8 x    32            125411328       0.0%    100.0%      0.0%
 flops     8 x     7 x    32            125411328       0.0%    100.0%      0.0%
 flops     8 x    32 x    32            129761280       0.0%    100.0%      0.0%
 flops    36 x    36 x   138            135209088       0.0%    100.0%      0.0%
 flops     7 x     8 x    36            141087744       0.0%    100.0%      0.0%
 flops     8 x     7 x    36            141087744       0.0%    100.0%      0.0%
 flops   138 x    32 x    32            147529728       0.0%    100.0%      0.0%
 flops   138 x    32 x    36            165970944       0.0%    100.0%      0.0%
 flops   138 x    36 x    32            165970944       0.0%    100.0%      0.0%
 flops   138 x    36 x    36            186717312       0.0%    100.0%      0.0%
 flops    32 x    32 x   138            200097792       0.0%    100.0%      0.0%
 flops     8 x     8 x    32            290635776       0.0%    100.0%      0.0%
 flops     8 x     8 x    36            326965248       0.0%    100.0%      0.0%
 flops     7 x     7 x    64            451132416       0.0%    100.0%      0.0%
 flops    64 x    64 x    32            570425344       0.0%    100.0%      0.0%
 flops    32 x    64 x    64            570425344       0.0%    100.0%      0.0%
 flops    64 x    32 x    64            570425344       0.0%    100.0%      0.0%
 flops   138 x    32 x   138            614283264       0.0%    100.0%      0.0%
 flops    64 x    64 x    36            641728512       0.0%    100.0%      0.0%
 flops    36 x    64 x    64            641728512       0.0%    100.0%      0.0%
 flops    64 x    36 x    64            641728512       0.0%    100.0%      0.0%
 flops   138 x    36 x   138            691068672       0.0%    100.0%      0.0%
 flops    32 x    64 x   138            854654976       0.0%    100.0%      0.0%
 flops    64 x    32 x   138            854654976       0.0%    100.0%      0.0%
 flops    36 x    64 x   138            961486848       0.0%    100.0%      0.0%
 flops    64 x    36 x   138            961486848       0.0%    100.0%      0.0%
 flops     7 x     8 x    64           1003290624       0.0%    100.0%      0.0%
 flops     8 x     7 x    64           1003290624       0.0%    100.0%      0.0%
 flops   138 x    64 x    32           1180237824       0.0%    100.0%      0.0%
 flops   138 x    32 x    64           1180237824       0.0%    100.0%      0.0%
 flops   138 x    64 x    36           1327767552       0.0%    100.0%      0.0%
 flops   138 x    36 x    64           1327767552       0.0%    100.0%      0.0%
 flops     7 x    32 x     7           1706987520       0.0%    100.0%      0.0%
 flops     8 x     8 x    64           2325086208       0.0%    100.0%      0.0%
 flops     7 x    32 x     8           3901685760       0.0%    100.0%      0.0%
 flops     8 x    32 x     7           3901685760       0.0%    100.0%      0.0%
 flops    64 x    64 x    64           4563402752       0.0%    100.0%      0.0%
 flops   138 x    64 x   138           4914266112       0.0%    100.0%      0.0%
 flops    64 x    64 x   138           6837239808       0.0%    100.0%      0.0%
 flops     8 x    32 x     8           8918138880       0.0%    100.0%      0.0%
 flops   138 x    64 x    64           9441902592       0.0%    100.0%      0.0%
 flops inhomo. stacks                           0       0.0%      0.0%      0.0%
 flops total                        66.545303E+09       0.0%    100.0%      0.0%
 flops max/rank                      2.297876E+09       0.0%    100.0%      0.0%
 matmuls inhomo. stacks                         0       0.0%      0.0%      0.0%
 matmuls total                            6421752       0.0%    100.0%      0.0%
 number of processed stacks                131388       0.0%    100.0%      0.0%
 average stack size                                     0.0      48.9       0.0
 marketing flops                    72.896119E+09
 -------------------------------------------------------------------------------
 # multiplications                            373
 max memory usage/rank             280.342528E+06
 # max total images/rank                        1
 # max 3D layers                                1
 # MPI messages exchanged                  134280
 MPI messages size (bytes):
  total size                         6.556770E+09
  min size                           0.000000E+00
  max size                         152.352000E+03
  average size                      48.829090E+03
 MPI breakdown and total messages size (bytes):
             size <=      128                 510                        0
       128 < size <=     8192                1805                 14786560
      8192 < size <=    32768               63025               1497278080
     32768 < size <=   131072               58860               3508997760
    131072 < size <=  4194304               10080               1535708160
   4194304 < size <= 16777216                   0                        0
  16777216 < size                               0                        0
 -------------------------------------------------------------------------------
 -                                                                             -
 -                      DBCSR MESSAGE PASSING PERFORMANCE                      -
 -                                                                             -
 -------------------------------------------------------------------------------
 ROUTINE             CALLS      AVE VOLUME [Bytes]
 MP_Bcast               80                     12.
 MP_Allreduce         2082                      9.
 MP_Alltoall          1445                  13576.
 MP_ISend             8948                  23505.
 MP_IRecv             8948                  22279.
 -------------------------------------------------------------------------------

 -------------------------------------------------------------------------------
 -                                                                             -
 -                                GRID STATISTICS                              -
 -                                                                             -
 -------------------------------------------------------------------------------
 LP    KERNEL             BACKEND                              COUNT     PERCENT
 1     collocate general  REF                                 398736      29.76%
 2     collocate general  REF                                 228384      17.05%
 0     collocate general  REF                                 200520      14.97%
 1     integrate general  REF                                 199368      14.88%
 2     integrate general  REF                                 114192       8.52%
 0     integrate general  REF                                 100260       7.48%
 3     collocate general  REF                                  61776       4.61%
 3     integrate general  REF                                  30888       2.31%
 4     collocate general  REF                                   3744       0.28%
 4     integrate general  REF                                   1872       0.14%
 -------------------------------------------------------------------------------

 MEMORY| Estimated peak process memory [MiB]                                 272

 -------------------------------------------------------------------------------
 ----                             MULTIGRID INFO                            ----
 -------------------------------------------------------------------------------
 count for grid        1:           8100          cutoff [a.u.]          150.00
 count for grid        2:          40500          cutoff [a.u.]           50.00
 count for grid        3:          25344          cutoff [a.u.]           16.67
 count for grid        4:              0          cutoff [a.u.]            5.56
 total gridlevel count  :          73944

 -------------------------------------------------------------------------------
 -                                                                             -
 -                         MESSAGE PASSING PERFORMANCE                         -
 -                                                                             -
 -------------------------------------------------------------------------------

 ROUTINE             CALLS      AVE VOLUME [Bytes]
 MP_Group                4
 MP_Bcast             2376                  63917.
 MP_Allreduce         5638                    322.
 MP_Sync               180
 MP_Alltoall           196                1804812.
 MP_ISendRecv         7385                 152390.
 MP_Wait              7385
 MP_comm_split          24
 MP_Recv                20                 211968.
 -------------------------------------------------------------------------------


 -------------------------------------------------------------------------------
 -                                                                             -
 -                           R E F E R E N C E S                               -
 -                                                                             -
 -------------------------------------------------------------------------------
 
 CP2K version 10.0 (Development Version), the CP2K developers group (2022).
 CP2K is freely available from https://www.cp2k.org/ .

 Kuehne,Thomas D.; Iannuzzi,Marcella; Del Ben,Mauro;
 Rybkin,Vladimir V.; Seewald,Patrick; Stein,Frederick; Laino,Teodoro;
 Khaliullin,Rustam Z.; Schuett,Ole; Schiffmann,Florian; Golze,Dorothea;
 Wilhelm,Jan; Chulkov,Sergey; Bani-Hashemian,Mohammad Hossein;
 Weber,Valery; Borstnik,Urban; Taillefumier,Mathieu;
 Jakobovits,Alice Shoshana; Lazzaro,Alfio; Pabst,Hans; Mueller,Tiziano;
 Schade,Robert; Guidon,Manuel; Andermatt,Samuel; Holmberg,Nico;
 Schenter,Gregory K.; Hehn,Anna; Bussy,Augustin; Belleflamme,Fabian;
 Tabacchi,Gloria; Gloess,Andreas; Lass,Michael; Bethune,Iain;
 Mundy,Christopher J.; Plessl,Christian; Watkins,Matt;
 VandeVondele,Joost; Krack,Matthias; Hutter,Juerg. 
 The Journal of Chemical Physics, 152 (19), (2020). 
 CP2K: An electronic structure and molecular dynamics software package -
 Quickstep: Efficient and accurate electronic structure calculations.
 https://doi.org/10.1063/5.0007045

 Schuett, Ole; Messmer, Peter; Hutter, Juerg; VandeVondele, Joost. 
 Electronic Structure Calculations on Graphics Processing Units, John
 Wiley & Sons, Ltd, 173-190 (2016). 
 GPU-Accelerated Sparse Matrix-Matrix Multiplication for
 Linear Scaling Density Functional Theory.
 https://doi.org/10.1002/9781118670712.ch8

 Heinecke, A; Henry, G; Hutchinson, M; Pabst, H. 
 Proceedings of Intl. Supercomputing Conference, 981-991 (2016). 
 LIBXSMM: Accelerating Small Matrix Multiplications
 by Runtime Code Generation.
 https://doi.org/10.1109/SC.2016.83

 Borstnik, U; VandeVondele, J; Weber, V; Hutter, J. 
 PARALLEL COMPUTING, 40 (5-6), 47-58 (2014). 
 Sparse matrix multiplication: The distributed block-compressed sparse
 row library.
 https://doi.org/10.1016/j.parco.2014.03.012

 Hutter, J; Iannuzzi, M; Schiffmann, F; VandeVondele, J. 
 WIREs Comput Mol Sci., 4 (1), 15-25 (2014). 
 CP2K: atomistic simulations of condensed matter systems.
 https://doi.org/10.1002/wcms.1159

 Guidon, M; Hutter, J; VandeVondele, J. 
 JOURNAL OF CHEMICAL THEORY AND COMPUTATION, 5 (11), 3010-3021 (2009). 
 Robust Periodic Hartree-Fock Exchange for Large-Scale Simulations Using
 Gaussian Basis Sets.
 https://doi.org/10.1021/ct900494g

 Guidon, M; Schiffmann, F; Hutter, J; VandeVondele, J. 
 JOURNAL OF CHEMICAL PHYSICS, 128 (21), 214104 (2008). 
 Ab initio molecular dynamics using hybrid density functionals.
 https://doi.org/10.1063/1.2931945

 Krack, M. 
 THEORETICAL CHEMISTRY ACCOUNTS, 114 (1-3), 145-152 (2005). 
 Pseudopotentials for H to Kr optimized for gradient-corrected
 exchange-correlation functionals.
 https://doi.org/10.1007/s00214-005-0655-y

 VandeVondele, J; Krack, M; Mohamed, F; Parrinello, M; Chassaing, T;
 Hutter, J. COMPUTER PHYSICS COMMUNICATIONS, 167 (2), 103-128 (2005). 
 QUICKSTEP: Fast and accurate density functional calculations using a
 mixed Gaussian and plane waves approach.
 https://doi.org/10.1016/j.cpc.2004.12.014

 Frigo, M; Johnson, SG. 
 PROCEEDINGS OF THE IEEE, 93 (2), 216-231 (2005). 
 The design and implementation of FFTW3.
 https://doi.org/10.1109/JPROC.2004.840301

 VandeVondele, J; Hutter, J. 
 JOURNAL OF CHEMICAL PHYSICS, 118 (10), 4365-4369 (2003). 
 An efficient orbital transformation method for electronic structure
 calculations.
 https://doi.org/10.1063/1.1543154

 Hartwigsen, C; Goedecker, S; Hutter, J. 
 PHYSICAL REVIEW B, 58 (7), 3641-3662 (1998). 
 Relativistic separable dual-space Gaussian pseudopotentials from H to Rn.
 https://doi.org/10.1103/PhysRevB.58.3641

 Lippert, G; Hutter, J; Parrinello, M. 
 MOLECULAR PHYSICS, 92 (3), 477-487 (1997). 
 A hybrid Gaussian and plane wave density functional scheme.
 https://doi.org/10.1080/002689797170220

 Goedecker, S; Teter, M; Hutter, J. 
 PHYSICAL REVIEW B, 54 (3), 1703-1710 (1996). 
 Separable dual-space Gaussian pseudopotentials.
 https://doi.org/10.1103/PhysRevB.54.1703


 -------------------------------------------------------------------------------
 -                                                                             -
 -                                T I M I N G                                  -
 -                                                                             -
 -------------------------------------------------------------------------------
 SUBROUTINE                       CALLS  ASD         SELF TIME        TOTAL TIME
                                MAXIMUM       AVERAGE  MAXIMUM  AVERAGE  MAXIMUM
 CP2K                                 1  1.0    0.007    0.033   15.238   15.239
 qs_energies                          1  2.0    0.000    0.000   15.120   15.122
 scf_env_do_scf                       1  3.0    0.000    0.000   14.583   14.585
 scf_env_do_scf_inner_loop           25  4.0    0.001    0.002   12.052   12.054
 qs_ks_update_qs_env                 26  5.0    0.000    0.000    8.356    8.361
 rebuild_ks_matrix                   25  6.0    0.000    0.000    8.352    8.358
 qs_ks_build_kohn_sham_matrix        25  7.0    0.004    0.005    8.352    8.358
 hfx_ks_matrix                       25  8.0    0.000    0.001    5.964    5.976
 integrate_four_center               25  9.0    0.081    0.459    5.961    5.972
 qs_rho_update_rho                   26  5.0    0.000    0.000    4.711    4.714
 calculate_rho_elec                  26  6.0    0.008    0.009    4.711    4.714
 integrate_four_center_main          25 10.0    0.006    0.008    4.367    4.671
 integrate_four_center_bin         1700 11.0    4.361    4.666    4.361    4.666
 mp_waitall_1                     31257 13.3    3.603    4.545    3.603    4.545
 rs_pw_transfer                     159  9.0    0.002    0.003    3.192    4.097
 density_rs2pw                       26  7.0    0.001    0.001    2.594    3.495
 rs_pw_transfer_RS2PW_150            28  8.9    0.150    0.166    1.975    2.954
 grid_collocate_task_list            26  7.0    2.086    2.834    2.086    2.834
 init_scf_loop                        1  4.0    0.000    0.000    2.529    2.529
 sum_up_and_integrate                13  8.0    0.000    0.000    1.787    2.183
 integrate_v_rspace                  13  9.0    0.001    0.001    1.787    2.183
 dbcsr_multiply_generic             373  9.8    0.011    0.011    1.312    1.752
 qs_scf_new_mos                      25  5.0    0.000    0.000    1.598    1.604
 qs_scf_loop_do_ot                   25  6.0    0.000    0.000    1.598    1.604
 ot_scf_mini                         25  7.0    0.000    0.001    1.520    1.528
 grid_integrate_task_list            13 10.0    0.927    1.322    0.927    1.322
 mp_sum_l                          2130  9.5    0.541    0.991    0.541    0.991
 qs_ot_get_p                         26  7.9    0.000    0.000    0.896    0.905
 potential_pw2rs                     13 10.0    0.001    0.001    0.859    0.865
 qs_ot_p2m_diag                      24  9.0    0.006    0.008    0.715    0.721
 mp_sync                            180 11.1    0.374    0.680    0.374    0.680
 cp_dbcsr_syevd                      24 10.0    0.002    0.002    0.644    0.644
 multiply_cannon                    373 10.8    0.021    0.024    0.567    0.640
 cp_fm_syevd                         24 11.0    0.000    0.000    0.629    0.629
 rs_pw_transfer_PW2RS_150            14 11.7    0.071    0.090    0.599    0.623
 cp_fm_redistribute_end              24 12.0    0.480    0.617    0.482    0.618
 cp_fm_syevd_base                    24 12.0    0.135    0.610    0.135    0.610
 multiply_cannon_loop               373 11.8    0.010    0.010    0.510    0.575
 pw_transfer                        246  8.8    0.016    0.020    0.493    0.519
 fft_wrap_pw1pw2                    196  9.8    0.002    0.002    0.468    0.493
 mp_bcast_im                        355  7.4    0.412    0.423    0.412    0.423
 fft_wrap_pw1pw2_150                 79 10.5    0.034    0.042    0.389    0.417
 ot_mini                             25  8.0    0.000    0.000    0.403    0.409
 rs_pw_transfer_RS2PW_50             26  9.0    0.024    0.026    0.349    0.409
 fft3d_ps                           196 11.8    0.170    0.211    0.354    0.373
 qs_ot_get_derivative                13  9.0    0.000    0.000    0.340    0.345
 multiply_cannon_metrocomm3        2238 12.8    0.004    0.005    0.152    0.342
 integrate_four_center_dist_KS       25 10.0    0.011    0.020    0.278    0.279
 qs_ot_get_derivative_diag           12 10.0    0.000    0.000    0.239    0.245
 integrate_four_center_getP          25 10.0    0.031    0.035    0.236    0.242
 multiply_cannon_metrocomm1        2238 12.8    0.005    0.005    0.130    0.240
 init_scf_run                         1  3.0    0.000    0.000    0.234    0.234
 scf_env_initial_rho_setup            1  4.0    0.000    0.001    0.234    0.234
 make_m2s                           746 10.8    0.007    0.007    0.175    0.185
 mp_alltoall_z22v                   196 13.8    0.153    0.185    0.153    0.185
 multiply_cannon_multrec           2238 12.8    0.145    0.178    0.146    0.179
 rs_pw_transfer_PW2RS_50             13 12.0    0.016    0.021    0.153    0.178
 integrate_four_center_load          25 10.0    0.000    0.000    0.174    0.175
 hfx_load_balance                     1 11.0    0.000    0.001    0.174    0.175
 qs_energies_init_hamiltonians        1  3.0    0.000    0.000    0.171    0.171
 -------------------------------------------------------------------------------

 The number of warnings for this run is : 1
 
 -------------------------------------------------------------------------------
  **** **** ******  **  PROGRAM ENDED AT                 2022-05-26 21:36:13.715
 ***** ** ***  *** **   PROGRAM RAN ON                                   tcopt11
 **    ****   ******    PROGRAM RAN BY                                   wilhelm
 ***** **    ** ** **   PROGRAM PROCESS ID                                 86594
  **** **  *******  **  PROGRAM STOPPED IN /data/wilhelm/55_check_HFX/5_HFX_MoS2
                                           _PERIODIC_XY/1_height_5A
